    1C
    1UUSER                                                              
    1UDATE              07.august.2018                                  
    1UTIME              21:07:45                                        
    1UHOST                                                              
    1UPGM               CalculiX                                        
    1UVERSION           Version 2.13                             
    1UCOMPILETIME       jue jun 14 00:40:39 CEST 2018                    
    1UDIR                                                               
    1UDBN                                                               
    1UMAT    1EL                                                        
    2C                            81                                     1
 -1         5 0.00000E+00 0.00000E+00 8.00000E+00
 -1         6 1.00000E+00 0.00000E+00 8.00000E+00
 -1         7 1.00000E+00 1.00000E+00 8.00000E+00
 -1         8 0.00000E+00 1.00000E+00 8.00000E+00
 -1        21 2.50000E-01 0.00000E+00 8.00000E+00
 -1        22 5.00000E-01 0.00000E+00 8.00000E+00
 -1        23 7.50000E-01 0.00000E+00 8.00000E+00
 -1        24 1.00000E+00 2.50000E-01 8.00000E+00
 -1        25 1.00000E+00 5.00000E-01 8.00000E+00
 -1        26 1.00000E+00 7.50000E-01 8.00000E+00
 -1        27 7.50000E-01 1.00000E+00 8.00000E+00
 -1        28 5.00000E-01 1.00000E+00 8.00000E+00
 -1        29 2.50000E-01 1.00000E+00 8.00000E+00
 -1        30 0.00000E+00 7.50000E-01 8.00000E+00
 -1        31 0.00000E+00 5.00000E-01 8.00000E+00
 -1        32 0.00000E+00 2.50000E-01 8.00000E+00
 -1        44 1.00000E+00 0.00000E+00 6.00000E+00
 -1        45 1.00000E+00 0.00000E+00 6.50000E+00
 -1        46 1.00000E+00 0.00000E+00 7.00000E+00
 -1        47 1.00000E+00 0.00000E+00 7.50000E+00
 -1        48 0.00000E+00 0.00000E+00 7.50000E+00
 -1        49 0.00000E+00 0.00000E+00 7.00000E+00
 -1        50 0.00000E+00 0.00000E+00 6.50000E+00
 -1        51 0.00000E+00 0.00000E+00 6.00000E+00
 -1        74 1.00000E+00 1.00000E+00 6.00000E+00
 -1        75 1.00000E+00 1.00000E+00 6.50000E+00
 -1        76 1.00000E+00 1.00000E+00 7.00000E+00
 -1        77 1.00000E+00 1.00000E+00 7.50000E+00
 -1        89 0.00000E+00 1.00000E+00 6.00000E+00
 -1        90 0.00000E+00 1.00000E+00 6.50000E+00
 -1        91 0.00000E+00 1.00000E+00 7.00000E+00
 -1        92 0.00000E+00 1.00000E+00 7.50000E+00
 -1        98 5.00000E-01 2.50000E-01 8.00000E+00
 -1        99 2.50000E-01 5.00000E-01 8.00000E+00
 -1       100 5.00000E-01 5.00000E-01 8.00000E+00
 -1       101 7.50000E-01 5.00000E-01 8.00000E+00
 -1       102 5.00000E-01 7.50000E-01 8.00000E+00
 -1       124 2.50000E-01 0.00000E+00 6.00000E+00
 -1       125 5.00000E-01 0.00000E+00 6.00000E+00
 -1       126 7.50000E-01 0.00000E+00 6.00000E+00
 -1       127 5.00000E-01 0.00000E+00 6.50000E+00
 -1       128 2.50000E-01 0.00000E+00 7.00000E+00
 -1       129 5.00000E-01 0.00000E+00 7.00000E+00
 -1       130 7.50000E-01 0.00000E+00 7.00000E+00
 -1       131 5.00000E-01 0.00000E+00 7.50000E+00
 -1       153 1.00000E+00 2.50000E-01 6.00000E+00
 -1       154 1.00000E+00 5.00000E-01 6.00000E+00
 -1       155 1.00000E+00 7.50000E-01 6.00000E+00
 -1       156 1.00000E+00 5.00000E-01 6.50000E+00
 -1       157 1.00000E+00 2.50000E-01 7.00000E+00
 -1       158 1.00000E+00 5.00000E-01 7.00000E+00
 -1       159 1.00000E+00 7.50000E-01 7.00000E+00
 -1       160 1.00000E+00 5.00000E-01 7.50000E+00
 -1       182 7.50000E-01 1.00000E+00 6.00000E+00
 -1       183 5.00000E-01 1.00000E+00 6.00000E+00
 -1       184 2.50000E-01 1.00000E+00 6.00000E+00
 -1       185 5.00000E-01 1.00000E+00 6.50000E+00
 -1       186 7.50000E-01 1.00000E+00 7.00000E+00
 -1       187 5.00000E-01 1.00000E+00 7.00000E+00
 -1       188 2.50000E-01 1.00000E+00 7.00000E+00
 -1       189 5.00000E-01 1.00000E+00 7.50000E+00
 -1       211 0.00000E+00 7.50000E-01 6.00000E+00
 -1       212 0.00000E+00 5.00000E-01 6.00000E+00
 -1       213 0.00000E+00 2.50000E-01 6.00000E+00
 -1       214 0.00000E+00 5.00000E-01 6.50000E+00
 -1       215 0.00000E+00 7.50000E-01 7.00000E+00
 -1       216 0.00000E+00 5.00000E-01 7.00000E+00
 -1       217 0.00000E+00 2.50000E-01 7.00000E+00
 -1       218 0.00000E+00 5.00000E-01 7.50000E+00
 -1       250 5.00000E-01 2.50000E-01 6.00000E+00
 -1       251 2.50000E-01 5.00000E-01 6.00000E+00
 -1       252 5.00000E-01 5.00000E-01 6.00000E+00
 -1       253 7.50000E-01 5.00000E-01 6.00000E+00
 -1       254 5.00000E-01 7.50000E-01 6.00000E+00
 -1       255 5.00000E-01 5.00000E-01 6.50000E+00
 -1       256 5.00000E-01 2.50000E-01 7.00000E+00
 -1       257 2.50000E-01 5.00000E-01 7.00000E+00
 -1       258 5.00000E-01 5.00000E-01 7.00000E+00
 -1       259 7.50000E-01 5.00000E-01 7.00000E+00
 -1       260 5.00000E-01 7.50000E-01 7.00000E+00
 -1       261 5.00000E-01 5.00000E-01 7.50000E+00
 -3
    3C                             8                                     1
 -1        25    4    0    1
 -2        51       125       252       212        49       129       258       216       124       250
 -2       251       213        50       127       255       214       128       256       257       217
 -1        26    4    0    1
 -2       125        44       154       252       129        46       158       258       126       153
 -2       253       250       127        45       156       255       130       157       259       256
 -1        27    4    0    1
 -2       212       252       183        89       216       258       187        91       251       254
 -2       184       211       214       255       185        90       257       260       188       215
 -1        28    4    0    1
 -2       252       154        74       183       258       158        76       187       253       155
 -2       182       254       255       156        75       185       259       159       186       260
 -1        29    4    0    1
 -2        49       129       258       216         5        22       100        31       128       256
 -2       257       217        48       131       261       218        21        98        99        32
 -1        30    4    0    1
 -2       129        46       158       258        22         6        25       100       130       157
 -2       259       256       131        47       160       261        23        24       101        98
 -1        31    4    0    1
 -2       216       258       187        91        31       100        28         8       257       260
 -2       188       215       218       261       189        92        99       102        29        30
 -1        32    4    0    1
 -2       258       158        76       187       100        25         7        28       259       159
 -2       186       260       261       160        77       189       101        26        27       102
 -3
    1PSTEP                         1           1           1          
  100CL  101 1.00000E-03          81                     1    1           1
 -4  DISP        4    1
 -5  D1          1    2    1    0
 -5  D2          1    2    2    0
 -5  D3          1    2    3    0
 -5  ALL         1    2    0    0    1ALL
 -1         5 0.00000E+00 0.00000E+00 0.00000E+00
 -1         6 0.00000E+00 0.00000E+00 0.00000E+00
 -1         7 0.00000E+00 0.00000E+00 0.00000E+00
 -1         8 0.00000E+00 0.00000E+00 0.00000E+00
 -1        21 0.00000E+00 0.00000E+00 0.00000E+00
 -1        22 0.00000E+00 0.00000E+00 0.00000E+00
 -1        23 0.00000E+00 0.00000E+00 0.00000E+00
 -1        24 0.00000E+00 0.00000E+00 0.00000E+00
 -1        25 0.00000E+00 0.00000E+00 0.00000E+00
 -1        26 0.00000E+00 0.00000E+00 0.00000E+00
 -1        27 0.00000E+00 0.00000E+00 0.00000E+00
 -1        28 0.00000E+00 0.00000E+00 0.00000E+00
 -1        29 0.00000E+00 0.00000E+00 0.00000E+00
 -1        30 0.00000E+00 0.00000E+00 0.00000E+00
 -1        31 0.00000E+00 0.00000E+00 0.00000E+00
 -1        32 0.00000E+00 0.00000E+00 0.00000E+00
 -1        44-2.49183E-08-4.61936E-07 5.74580E-08
 -1        45 6.53591E-09-3.35709E-07 1.03397E-07
 -1        46-4.28418E-09-2.32537E-07 1.27299E-07
 -1        47 1.81151E-08-8.50770E-08 6.95412E-08
 -1        48-1.81116E-08-8.50760E-08 6.95249E-08
 -1        49 4.27118E-09-2.32539E-07 1.27281E-07
 -1        50-6.47678E-09-3.35727E-07 1.03415E-07
 -1        51 2.49694E-08-4.62026E-07 5.74785E-08
 -1        74 7.30262E-08-6.24846E-07-6.54905E-08
 -1        75 3.75598E-08-4.06857E-07-1.03547E-07
 -1        76-2.32778E-08-1.98600E-07-1.27571E-07
 -1        77-3.17838E-08-5.94732E-08-7.21069E-08
 -1        89-7.29895E-08-6.24788E-07-6.54768E-08
 -1        90-3.75215E-08-4.06848E-07-1.03527E-07
 -1        91 2.32570E-08-1.98616E-07-1.27589E-07
 -1        92 3.17814E-08-5.94785E-08-7.21207E-08
 -1        98 0.00000E+00 0.00000E+00 0.00000E+00
 -1        99 0.00000E+00 0.00000E+00 0.00000E+00
 -1       100 0.00000E+00 0.00000E+00 0.00000E+00
 -1       101 0.00000E+00 0.00000E+00 0.00000E+00
 -1       102 0.00000E+00 0.00000E+00 0.00000E+00
 -1       124 2.50999E-08-3.86207E-07 5.52692E-08
 -1       125 6.28324E-11-4.68364E-07 5.76501E-08
 -1       126-2.50248E-08-3.86193E-07 5.52944E-08
 -1       127 3.13007E-12-3.31447E-07 1.20354E-07
 -1       128-1.62195E-09-2.55806E-07 1.24187E-07
 -1       129 1.75165E-11-2.37891E-07 1.22137E-07
 -1       130 1.63669E-09-2.55800E-07 1.24187E-07
 -1       131-1.21216E-12-9.53774E-08 7.26232E-08
 -1       153 2.41843E-08-4.62149E-07 2.40570E-08
 -1       154-1.90820E-08-2.84661E-07-3.65091E-09
 -1       155-2.50397E-08-5.08906E-07-3.22069E-08
 -1       156-2.00814E-08-3.61969E-07-1.12233E-08
 -1       157-6.11887E-09-1.93275E-07 5.19735E-08
 -1       158 1.46410E-08-2.01328E-07-5.07570E-09
 -1       159 1.10223E-08-1.86856E-07-5.52022E-08
 -1       160 6.68919E-09-8.74041E-08 8.26379E-10
 -1       182 2.38096E-08-3.17234E-07-6.25108E-08
 -1       183 4.29497E-11-5.98247E-07-6.26007E-08
 -1       184-2.37619E-08-3.17236E-07-6.25312E-08
 -1       185-2.81113E-12-3.76768E-07-1.15105E-07
 -1       186-8.48400E-09-2.91727E-07-1.30174E-07
 -1       187 9.85701E-12-2.41417E-07-1.25846E-07
 -1       188 8.48725E-09-2.91729E-07-1.30176E-07
 -1       189-3.58322E-12-9.29475E-08-7.40744E-08
 -1       211 2.50516E-08-5.08855E-07-3.22312E-08
 -1       212 1.91231E-08-2.84661E-07-3.60156E-09
 -1       213-2.41606E-08-4.62216E-07 2.40284E-08
 -1       214 2.00786E-08-3.61981E-07-1.12313E-08
 -1       215-1.10170E-08-1.86869E-07-5.52026E-08
 -1       216-1.46206E-08-2.01330E-07-5.08704E-09
 -1       217 6.12718E-09-1.93273E-07 5.19729E-08
 -1       218-6.68862E-09-8.74072E-08 8.25988E-10
 -1       250 2.03359E-11-5.43995E-07 2.13016E-08
 -1       251 6.37480E-09-3.40976E-07-1.81258E-09
 -1       252-3.37129E-11-4.09781E-07-2.80415E-09
 -1       253-6.38294E-09-3.40978E-07-1.86939E-09
 -1       254 9.83280E-12-5.96783E-07-3.51314E-08
 -1       255 1.18345E-11-3.31674E-07-5.49884E-09
 -1       256 4.78558E-12-2.10904E-07 5.05234E-08
 -1       257-7.22298E-09-2.24147E-07-2.09051E-09
 -1       258-5.78431E-12-2.40309E-07-2.52305E-09
 -1       259 7.22510E-09-2.24145E-07-2.07699E-09
 -1       260 1.03908E-12-2.14499E-07-5.44784E-08
 -1       261 4.07169E-12-9.40879E-08-3.16539E-10
 -3
    1PSTEP                         2           2           1          
  100CL  102 2.00000E-03          81                     1    2           1
 -4  DISP        4    1
 -5  D1          1    2    1    0
 -5  D2          1    2    2    0
 -5  D3          1    2    3    0
 -5  ALL         1    2    0    0    1ALL
 -1         5 0.00000E+00 0.00000E+00 0.00000E+00
 -1         6 0.00000E+00 0.00000E+00 0.00000E+00
 -1         7 0.00000E+00 0.00000E+00 0.00000E+00
 -1         8 0.00000E+00 0.00000E+00 0.00000E+00
 -1        21 0.00000E+00 0.00000E+00 0.00000E+00
 -1        22 0.00000E+00 0.00000E+00 0.00000E+00
 -1        23 0.00000E+00 0.00000E+00 0.00000E+00
 -1        24 0.00000E+00 0.00000E+00 0.00000E+00
 -1        25 0.00000E+00 0.00000E+00 0.00000E+00
 -1        26 0.00000E+00 0.00000E+00 0.00000E+00
 -1        27 0.00000E+00 0.00000E+00 0.00000E+00
 -1        28 0.00000E+00 0.00000E+00 0.00000E+00
 -1        29 0.00000E+00 0.00000E+00 0.00000E+00
 -1        30 0.00000E+00 0.00000E+00 0.00000E+00
 -1        31 0.00000E+00 0.00000E+00 0.00000E+00
 -1        32 0.00000E+00 0.00000E+00 0.00000E+00
 -1        44-5.02461E-08-6.96336E-08 2.05474E-09
 -1        45-1.02667E-09-3.47373E-08 1.24893E-08
 -1        46 4.46633E-09-1.48923E-08 2.16007E-08
 -1        47 4.42109E-09 1.52373E-09 2.27754E-09
 -1        48-4.42008E-09 1.52199E-09 2.27713E-09
 -1        49-4.45669E-09-1.48913E-08 2.15944E-08
 -1        50 1.02580E-09-3.47353E-08 1.24837E-08
 -1        51 5.02536E-08-6.96114E-08 2.05172E-09
 -1        74 9.25196E-08-2.08349E-07-8.71541E-09
 -1        75 3.91344E-08-9.55728E-08-1.25411E-08
 -1        76-2.80554E-08 1.40687E-08-2.17845E-08
 -1        77-1.61964E-08 2.33221E-08-4.42131E-09
 -1        89-9.25160E-08-2.08363E-07-8.70986E-09
 -1        90-3.91400E-08-9.55808E-08-1.25450E-08
 -1        91 2.80656E-08 1.40705E-08-2.17908E-08
 -1        92 1.61981E-08 2.33237E-08-4.42230E-09
 -1        98 0.00000E+00 0.00000E+00 0.00000E+00
 -1        99 0.00000E+00 0.00000E+00 0.00000E+00
 -1       100 0.00000E+00 0.00000E+00 0.00000E+00
 -1       101 0.00000E+00 0.00000E+00 0.00000E+00
 -1       102 0.00000E+00 0.00000E+00 0.00000E+00
 -1       124 2.10125E-08-3.23508E-08 2.88372E-09
 -1       125-4.09412E-12-4.35208E-08 2.74391E-09
 -1       126-2.10032E-08-3.23563E-08 2.88769E-09
 -1       127 2.87574E-12-2.11942E-08 1.87591E-08
 -1       128-1.81289E-09-2.53087E-08 1.27801E-08
 -1       129 3.37033E-13-2.42048E-08 9.36428E-09
 -1       130 1.81554E-09-2.53105E-08 1.27824E-08
 -1       131 1.00715E-12-5.90194E-09 6.47790E-09
 -1       153 4.49027E-08-8.73083E-09-2.91536E-10
 -1       154-1.56845E-08 9.58233E-08-2.97797E-09
 -1       155-4.62903E-08-4.96843E-08-6.45622E-09
 -1       156-1.69067E-08-2.59834E-08-9.49470E-09
 -1       157-1.00427E-08-5.84859E-09 6.93841E-09
 -1       158 1.22304E-08-9.17048E-09-4.29359E-09
 -1       159 1.42881E-08-6.31955E-11-9.59508E-09
 -1       160 5.62794E-09-1.25435E-08 6.94206E-10
 -1       182 2.16363E-08 2.62263E-08-8.84640E-09
 -1       183-2.06196E-12-1.53290E-07-6.84011E-09
 -1       184-2.16253E-08 2.62333E-08-8.84338E-09
 -1       185 3.54073E-12-5.91873E-08-1.40511E-08
 -1       186-7.96446E-09-5.55764E-08-1.77824E-08
 -1       187-9.88426E-13-2.69452E-08-1.23412E-08
 -1       188 7.96567E-09-5.55787E-08-1.77855E-08
 -1       189 7.61800E-13-3.85334E-09-7.66652E-09
 -1       211 4.62996E-08-4.97010E-08-6.46159E-09
 -1       212 1.56866E-08 9.58204E-08-2.97605E-09
 -1       213-4.48951E-08-8.71422E-09-2.92947E-10
 -1       214 1.69142E-08-2.59822E-08-9.49464E-09
 -1       215-1.42836E-08-6.11110E-11-9.59723E-09
 -1       216-1.22292E-08-9.17223E-09-4.29650E-09
 -1       217 1.00476E-08-5.85084E-09 6.93430E-09
 -1       218-5.62695E-09-1.25436E-08 6.92209E-10
 -1       250 2.61331E-13-8.01843E-08-2.45987E-09
 -1       251 5.88505E-09-4.75516E-08-1.48678E-09
 -1       252 1.04540E-11-3.90477E-08-2.28959E-09
 -1       253-5.86923E-09-4.75517E-08-1.48905E-09
 -1       254-1.81182E-12-1.23430E-07-9.07400E-09
 -1       255 4.51636E-12-6.89442E-09-4.57644E-09
 -1       256 1.63037E-12-2.22054E-08 1.49618E-09
 -1       257-6.18783E-09-7.61024E-09-1.72298E-09
 -1       258 1.31789E-12-4.13293E-08-2.09830E-09
 -1       259 6.18876E-09-7.60900E-09-1.72173E-09
 -1       260 1.66630E-12-2.54281E-08-4.77966E-09
 -1       261-6.10839E-13-1.01831E-08-2.64639E-10
 -3
    1PSTEP                         3           3           1          
  100CL  103 3.00000E-03          81                     1    3           1
 -4  DISP        4    1
 -5  D1          1    2    1    0
 -5  D2          1    2    2    0
 -5  D3          1    2    3    0
 -5  ALL         1    2    0    0    1ALL
 -1         5 0.00000E+00 0.00000E+00 0.00000E+00
 -1         6 0.00000E+00 0.00000E+00 0.00000E+00
 -1         7 0.00000E+00 0.00000E+00 0.00000E+00
 -1         8 0.00000E+00 0.00000E+00 0.00000E+00
 -1        21 0.00000E+00 0.00000E+00 0.00000E+00
 -1        22 0.00000E+00 0.00000E+00 0.00000E+00
 -1        23 0.00000E+00 0.00000E+00 0.00000E+00
 -1        24 0.00000E+00 0.00000E+00 0.00000E+00
 -1        25 0.00000E+00 0.00000E+00 0.00000E+00
 -1        26 0.00000E+00 0.00000E+00 0.00000E+00
 -1        27 0.00000E+00 0.00000E+00 0.00000E+00
 -1        28 0.00000E+00 0.00000E+00 0.00000E+00
 -1        29 0.00000E+00 0.00000E+00 0.00000E+00
 -1        30 0.00000E+00 0.00000E+00 0.00000E+00
 -1        31 0.00000E+00 0.00000E+00 0.00000E+00
 -1        32 0.00000E+00 0.00000E+00 0.00000E+00
 -1        44-1.93750E-08-3.29958E-07 4.07697E-08
 -1        45 4.56258E-09-2.39153E-07 7.37598E-08
 -1        46-2.77004E-09-1.65072E-07 9.09418E-08
 -1        47 1.29952E-08-6.01695E-08 4.93376E-08
 -1        48-1.29888E-08-6.01696E-08 4.93296E-08
 -1        49 2.79531E-09-1.65071E-07 9.09235E-08
 -1        50-4.52901E-09-2.39151E-07 7.37362E-08
 -1        51 1.94415E-08-3.29947E-07 4.07559E-08
 -1        74 5.53695E-08-4.50193E-07-4.66113E-08
 -1        75 2.81958E-08-2.91755E-07-7.38098E-08
 -1        76-1.75217E-08-1.40097E-07-9.11082E-08
 -1        77-2.31254E-08-4.12722E-08-5.12137E-08
 -1        89-5.53118E-08-4.50207E-07-4.66231E-08
 -1        90-2.81615E-08-2.91759E-07-7.38327E-08
 -1        91 1.75447E-08-1.40098E-07-9.11291E-08
 -1        92 2.31312E-08-4.12730E-08-5.12233E-08
 -1        98 0.00000E+00 0.00000E+00 0.00000E+00
 -1        99 0.00000E+00 0.00000E+00 0.00000E+00
 -1       100 0.00000E+00 0.00000E+00 0.00000E+00
 -1       101 0.00000E+00 0.00000E+00 0.00000E+00
 -1       102 0.00000E+00 0.00000E+00 0.00000E+00
 -1       124 1.78261E-08-2.74561E-07 3.92319E-08
 -1       125 3.70036E-11-3.33329E-07 4.09187E-08
 -1       126-1.77350E-08-2.74556E-07 3.92374E-08
 -1       127 1.80468E-11-2.35501E-07 8.58891E-08
 -1       128-1.08739E-09-1.82118E-07 8.84411E-08
 -1       129 1.11988E-11-1.69424E-07 8.68810E-08
 -1       130 1.10565E-09-1.82122E-07 8.84492E-08
 -1       131 2.14353E-12-6.77497E-08 5.16774E-08
 -1       153 1.86927E-08-3.27269E-07 1.70462E-08
 -1       154-1.38779E-08-1.98478E-07-2.62283E-09
 -1       155-1.95126E-08-3.62662E-07-2.29816E-08
 -1       156-1.47325E-08-2.57316E-07-8.25314E-09
 -1       157-4.65523E-09-1.37184E-07 3.70877E-08
 -1       158 1.07130E-08-1.42933E-07-3.72762E-09
 -1       159 8.32543E-09-1.32270E-07-3.94145E-08
 -1       160 4.92149E-09-6.23346E-08 6.15409E-10
 -1       182 1.79732E-08-2.23714E-07-4.44721E-08
 -1       183 3.76378E-11-4.28943E-07-4.45388E-08
 -1       184-1.78859E-08-2.23711E-07-4.44897E-08
 -1       185 1.52461E-11-2.68791E-07-8.19267E-08
 -1       186-6.34194E-09-2.08566E-07-9.28301E-08
 -1       187 1.15428E-11-1.71947E-07-8.95539E-08
 -1       188 6.35947E-09-2.08570E-07-9.28370E-08
 -1       189 1.72553E-12-6.59841E-08-5.27359E-08
 -1       211 1.95569E-08-3.62677E-07-2.29981E-08
 -1       212 1.39254E-08-1.98484E-07-2.62940E-09
 -1       213-1.86435E-08-3.27262E-07 1.70331E-08
 -1       214 1.47738E-08-2.57316E-07-8.26910E-09
 -1       215-8.30231E-09-1.32269E-07-3.94336E-08
 -1       216-1.06944E-08-1.42934E-07-3.74798E-09
 -1       217 4.67940E-09-1.37185E-07 3.70691E-08
 -1       218-4.91645E-09-6.23347E-08 6.07386E-10
 -1       250 1.99651E-11-3.88823E-07 1.50160E-08
 -1       251 5.13349E-09-2.43094E-07-1.32412E-09
 -1       252 1.81665E-11-2.91526E-07-2.02634E-09
 -1       253-5.07918E-09-2.43092E-07-1.31819E-09
 -1       254 1.96580E-11-4.26713E-07-2.51425E-08
 -1       255 2.31253E-11-2.35247E-07-4.02184E-09
 -1       256 1.04591E-11-1.50013E-07 3.58503E-08
 -1       257-5.38696E-09-1.59047E-07-1.52306E-09
 -1       258 5.57183E-12-1.71608E-07-1.84472E-09
 -1       259 5.39846E-09-1.59046E-07-1.51447E-09
 -1       260 1.07330E-11-1.52839E-07-3.87359E-08
 -1       261 2.03117E-12-6.69958E-08-2.29137E-10
 -3
    1PSTEP                         4           4           1          
  100CL  104 4.00000E-03          81                     1    4           1
 -4  DISP        4    1
 -5  D1          1    2    1    0
 -5  D2          1    2    2    0
 -5  D3          1    2    3    0
 -5  ALL         1    2    0    0    1ALL
 -1         5 0.00000E+00 0.00000E+00 0.00000E+00
 -1         6 0.00000E+00 0.00000E+00 0.00000E+00
 -1         7 0.00000E+00 0.00000E+00 0.00000E+00
 -1         8 0.00000E+00 0.00000E+00 0.00000E+00
 -1        21 0.00000E+00 0.00000E+00 0.00000E+00
 -1        22 0.00000E+00 0.00000E+00 0.00000E+00
 -1        23 0.00000E+00 0.00000E+00 0.00000E+00
 -1        24 0.00000E+00 0.00000E+00 0.00000E+00
 -1        25 0.00000E+00 0.00000E+00 0.00000E+00
 -1        26 0.00000E+00 0.00000E+00 0.00000E+00
 -1        27 0.00000E+00 0.00000E+00 0.00000E+00
 -1        28 0.00000E+00 0.00000E+00 0.00000E+00
 -1        29 0.00000E+00 0.00000E+00 0.00000E+00
 -1        30 0.00000E+00 0.00000E+00 0.00000E+00
 -1        31 0.00000E+00 0.00000E+00 0.00000E+00
 -1        32 0.00000E+00 0.00000E+00 0.00000E+00
 -1        44-3.55570E-08-7.42023E-08 4.63275E-09
 -1        45-2.24743E-10-4.30800E-08 1.45232E-08
 -1        46 2.72262E-09-2.36932E-08 2.21308E-08
 -1        47 4.01939E-09-3.89101E-09 5.57410E-09
 -1        48-4.03317E-09-3.89208E-09 5.59430E-09
 -1        49-2.77473E-09-2.36975E-08 2.21764E-08
 -1        50 1.47211E-10-4.30873E-08 1.45748E-08
 -1        51 3.54127E-08-7.42227E-08 4.66326E-09
 -1        74 6.74428E-08-1.78906E-07-9.81257E-09
 -1        75 2.89559E-08-8.90020E-08-1.47036E-08
 -1        76-2.05800E-08-1.82333E-09-2.23549E-08
 -1        77-1.29350E-08 1.25572E-08-7.22349E-09
 -1        89-6.75948E-08-1.78902E-07-9.78529E-09
 -1        90-2.90391E-08-8.89944E-08-1.46521E-08
 -1        91 2.05287E-08-1.82243E-09-2.23076E-08
 -1        92 1.29212E-08 1.25584E-08-7.20183E-09
 -1        98 0.00000E+00 0.00000E+00 0.00000E+00
 -1        99 0.00000E+00 0.00000E+00 0.00000E+00
 -1       100 0.00000E+00 0.00000E+00 0.00000E+00
 -1       101 0.00000E+00 0.00000E+00 0.00000E+00
 -1       102 0.00000E+00 0.00000E+00 0.00000E+00
 -1       124 1.54592E-08-4.45255E-08 5.09619E-09
 -1       125-8.70284E-11-5.68953E-08 5.12611E-09
 -1       126-1.56621E-08-4.45368E-08 5.07386E-09
 -1       127-3.83384E-11-3.37603E-08 1.98090E-08
 -1       128-1.30415E-09-3.21207E-08 1.59678E-08
 -1       129-2.51509E-11-3.03094E-08 1.35219E-08
 -1       130 1.26466E-09-3.21131E-08 1.59492E-08
 -1       131-3.91019E-12-9.50621E-09 8.62415E-09
 -1       153 3.18898E-08-3.27835E-08 1.11307E-09
 -1       154-1.18410E-08 4.88320E-08-2.31924E-09
 -1       155-3.31293E-08-6.39518E-08-6.35499E-09
 -1       156-1.27841E-08-3.87022E-08-7.22648E-09
 -1       157-7.21057E-09-1.52083E-08 7.71728E-09
 -1       158 9.17221E-09-1.79445E-08-3.28139E-09
 -1       159 1.03579E-08-1.07757E-08-9.80497E-09
 -1       160 4.23063E-09-1.36026E-08 5.05922E-10
 -1       182 1.62235E-08-3.33418E-10-9.72781E-09
 -1       183-8.91746E-11-1.39652E-07-8.35333E-09
 -1       184-1.64309E-08-3.47585E-10-9.70325E-09
 -1       185-3.85344E-11-6.23392E-08-1.63318E-08
 -1       186-5.99874E-09-5.48981E-08-1.97715E-08
 -1       187-2.63806E-11-3.23130E-08-1.57907E-08
 -1       188 5.95804E-09-5.48934E-08-1.97529E-08
 -1       189-4.20720E-12-7.95990E-09-9.53220E-09
 -1       211 3.30131E-08-6.39393E-08-6.31016E-09
 -1       212 1.17245E-08 4.88333E-08-2.30687E-09
 -1       213-3.20029E-08-3.28027E-08 1.15175E-09
 -1       214 1.26936E-08-3.87054E-08-7.18911E-09
 -1       215-1.04116E-08-1.07781E-08-9.76349E-09
 -1       216-9.21797E-09-1.79434E-08-3.23434E-09
 -1       217 7.15675E-09-1.52065E-08 7.75928E-09
 -1       218-4.24206E-09-1.36032E-08 5.24481E-10
 -1       250-4.52159E-11-8.64617E-08-5.16662E-10
 -1       251 4.48004E-09-5.22149E-08-1.18109E-09
 -1       252-3.94816E-11-5.02459E-08-1.80230E-09
 -1       253-4.60688E-09-5.22175E-08-1.18937E-09
 -1       254-4.82907E-11-1.18819E-07-8.29198E-09
 -1       255-5.35594E-11-2.39812E-08-3.49068E-09
 -1       256-2.33668E-11-2.72912E-08 3.94644E-09
 -1       257-4.69496E-09-1.81574E-08-1.30817E-09
 -1       258-1.18309E-11-4.20859E-08-1.60014E-09
 -1       259 4.66830E-09-1.81575E-08-1.32898E-09
 -1       260-2.35310E-11-2.97476E-08-6.46797E-09
 -1       261-4.82200E-12-1.23821E-08-2.06568E-10
 -3
    1PSTEP                         5           5           1          
  100CL  105 5.00000E-03          81                     1    5           1
 -4  DISP        4    1
 -5  D1          1    2    1    0
 -5  D2          1    2    2    0
 -5  D3          1    2    3    0
 -5  ALL         1    2    0    0    1ALL
 -1         5 0.00000E+00 0.00000E+00 0.00000E+00
 -1         6 0.00000E+00 0.00000E+00 0.00000E+00
 -1         7 0.00000E+00 0.00000E+00 0.00000E+00
 -1         8 0.00000E+00 0.00000E+00 0.00000E+00
 -1        21 0.00000E+00 0.00000E+00 0.00000E+00
 -1        22 0.00000E+00 0.00000E+00 0.00000E+00
 -1        23 0.00000E+00 0.00000E+00 0.00000E+00
 -1        24 0.00000E+00 0.00000E+00 0.00000E+00
 -1        25 0.00000E+00 0.00000E+00 0.00000E+00
 -1        26 0.00000E+00 0.00000E+00 0.00000E+00
 -1        27 0.00000E+00 0.00000E+00 0.00000E+00
 -1        28 0.00000E+00 0.00000E+00 0.00000E+00
 -1        29 0.00000E+00 0.00000E+00 0.00000E+00
 -1        30 0.00000E+00 0.00000E+00 0.00000E+00
 -1        31 0.00000E+00 0.00000E+00 0.00000E+00
 -1        32 0.00000E+00 0.00000E+00 0.00000E+00
 -1        44-1.54960E-08-2.19633E-07 2.67435E-08
 -1        45 2.83753E-09-1.58249E-07 4.88811E-08
 -1        46-1.45642E-09-1.08550E-07 6.06001E-08
 -1        47 8.76966E-09-3.91789E-08 3.23700E-08
 -1        48-8.74727E-09-3.91750E-08 3.23327E-08
 -1        49 1.54009E-09-1.08544E-07 6.05181E-08
 -1        50-2.70121E-09-1.58226E-07 4.87837E-08
 -1        51 1.57368E-08-2.19590E-07 2.66863E-08
 -1        74 4.09301E-08-3.05035E-07-3.09182E-08
 -1        75 2.04167E-08-1.95544E-07-4.88706E-08
 -1        76-1.28125E-08-9.08635E-08-6.06454E-08
 -1        77-1.59104E-08-2.57580E-08-3.36748E-08
 -1        89-4.06701E-08-3.05048E-07-3.09694E-08
 -1        90-2.02734E-08-1.95550E-07-4.89669E-08
 -1        91 1.29057E-08-9.08636E-08-6.07184E-08
 -1        92 1.59378E-08-2.57582E-08-3.37079E-08
 -1        98 0.00000E+00 0.00000E+00 0.00000E+00
 -1        99 0.00000E+00 0.00000E+00 0.00000E+00
 -1       100 0.00000E+00 0.00000E+00 0.00000E+00
 -1       101 0.00000E+00 0.00000E+00 0.00000E+00
 -1       102 0.00000E+00 0.00000E+00 0.00000E+00
 -1       124 1.29960E-08-1.80917E-07 2.57353E-08
 -1       125 1.55769E-10-2.20215E-07 2.68194E-08
 -1       126-1.26400E-08-1.80904E-07 2.57888E-08
 -1       127 6.13366E-11-1.55016E-07 5.70560E-08
 -1       128-8.07618E-10-1.20353E-07 5.84422E-08
 -1       129 4.44928E-11-1.11926E-07 5.72435E-08
 -1       130 8.72455E-10-1.20365E-07 5.84738E-08
 -1       131 5.58460E-12-4.45591E-08 3.41009E-08
 -1       153 1.47803E-08-2.14390E-07 1.11468E-08
 -1       154-9.91518E-09-1.24420E-07-1.87509E-09
 -1       155-1.50586E-08-2.39556E-07-1.53311E-08
 -1       156-1.04470E-08-1.69406E-07-5.84451E-09
 -1       157-3.56194E-09-8.99177E-08 2.46238E-08
 -1       158 7.68525E-09-9.39229E-08-2.61633E-09
 -1       159 6.22449E-09-8.64515E-08-2.62302E-08
 -1       160 3.52067E-09-4.14156E-08 4.54226E-10
 -1       182 1.29891E-08-1.44790E-07-2.95027E-08
 -1       183 1.62987E-10-2.88347E-07-2.94545E-08
 -1       184-1.26151E-08-1.44760E-07-2.95199E-08
 -1       185 7.31292E-11-1.78805E-07-5.42892E-08
 -1       186-4.51186E-09-1.39211E-07-6.15786E-08
 -1       187 4.66032E-11-1.13736E-07-5.91720E-08
 -1       188 4.58331E-09-1.39220E-07-6.16113E-08
 -1       189 7.67137E-12-4.32977E-08-3.48600E-08
 -1       211 1.52739E-08-2.39572E-07-1.53984E-08
 -1       212 1.01471E-08-1.24403E-07-1.92418E-09
 -1       213-1.45732E-08-2.14343E-07 1.10616E-08
 -1       214 1.05984E-08-1.69403E-07-5.91462E-09
 -1       215-6.12562E-09-8.64430E-08-2.63039E-08
 -1       216-7.59829E-09-9.39173E-08-2.69876E-09
 -1       217 3.65579E-09-8.99176E-08 2.45490E-08
 -1       218-3.50232E-09-4.14137E-08 4.24043E-10
 -1       250 7.81658E-11-2.58191E-07 9.65827E-09
 -1       251 3.80135E-09-1.61379E-07-9.64505E-10
 -1       252 6.20944E-11-1.92324E-07-1.44615E-09
 -1       253-3.57071E-09-1.61390E-07-9.44694E-10
 -1       254 7.94151E-11-2.85209E-07-1.69140E-08
 -1       255 9.74242E-11-1.54008E-07-2.86886E-09
 -1       256 3.88532E-11-9.91840E-08 2.34990E-08
 -1       257-3.82573E-09-1.04289E-07-1.10583E-09
 -1       258 1.66351E-11-1.14328E-07-1.31986E-09
 -1       259 3.87119E-09-1.04291E-07-1.06764E-09
 -1       260 4.05838E-11-1.01200E-07-2.55585E-08
 -1       261 8.62704E-12-4.43255E-08-1.64534E-10
 -3
    1PSTEP                         6           6           1          
  100CL  106 6.00000E-03          81                     1    6           1
 -4  DISP        4    1
 -5  D1          1    2    1    0
 -5  D2          1    2    2    0
 -5  D3          1    2    3    0
 -5  ALL         1    2    0    0    1ALL
 -1         5 0.00000E+00 0.00000E+00 0.00000E+00
 -1         6 0.00000E+00 0.00000E+00 0.00000E+00
 -1         7 0.00000E+00 0.00000E+00 0.00000E+00
 -1         8 0.00000E+00 0.00000E+00 0.00000E+00
 -1        21 0.00000E+00 0.00000E+00 0.00000E+00
 -1        22 0.00000E+00 0.00000E+00 0.00000E+00
 -1        23 0.00000E+00 0.00000E+00 0.00000E+00
 -1        24 0.00000E+00 0.00000E+00 0.00000E+00
 -1        25 0.00000E+00 0.00000E+00 0.00000E+00
 -1        26 0.00000E+00 0.00000E+00 0.00000E+00
 -1        27 0.00000E+00 0.00000E+00 0.00000E+00
 -1        28 0.00000E+00 0.00000E+00 0.00000E+00
 -1        29 0.00000E+00 0.00000E+00 0.00000E+00
 -1        30 0.00000E+00 0.00000E+00 0.00000E+00
 -1        31 0.00000E+00 0.00000E+00 0.00000E+00
 -1        32 0.00000E+00 0.00000E+00 0.00000E+00
 -1        44-2.29198E-08-6.14527E-08 4.86722E-09
 -1        45-5.43485E-11-3.79357E-08 1.23959E-08
 -1        46 1.62263E-09-2.22659E-08 1.78655E-08
 -1        47 3.13051E-09-5.21772E-09 5.77131E-09