    1C
    1UUSER                                                              
    1UDATE              15.july.2018                                    
    1UTIME              20:30:34                                        
    1UHOST                                                              
    1UPGM               CalculiX                                        
    1UVERSION           Version 2.13                             
    1UCOMPILETIME       jue jun 14 00:40:39 CEST 2018                    
    1UDIR                                                               
    1UDBN                                                               
    1UMAT    1EL                                                        
    2C                            81                                     1
 -1         5 0.00000E+00 0.00000E+00 8.00000E+00
 -1         6 1.00000E+00 0.00000E+00 8.00000E+00
 -1         7 1.00000E+00 1.00000E+00 8.00000E+00
 -1         8 0.00000E+00 1.00000E+00 8.00000E+00
 -1        21 2.50000E-01 0.00000E+00 8.00000E+00
 -1        22 5.00000E-01 0.00000E+00 8.00000E+00
 -1        23 7.50000E-01 0.00000E+00 8.00000E+00
 -1        24 1.00000E+00 2.50000E-01 8.00000E+00
 -1        25 1.00000E+00 5.00000E-01 8.00000E+00
 -1        26 1.00000E+00 7.50000E-01 8.00000E+00
 -1        27 7.50000E-01 1.00000E+00 8.00000E+00
 -1        28 5.00000E-01 1.00000E+00 8.00000E+00
 -1        29 2.50000E-01 1.00000E+00 8.00000E+00
 -1        30 0.00000E+00 7.50000E-01 8.00000E+00
 -1        31 0.00000E+00 5.00000E-01 8.00000E+00
 -1        32 0.00000E+00 2.50000E-01 8.00000E+00
 -1        44 1.00000E+00 0.00000E+00 6.00000E+00
 -1        45 1.00000E+00 0.00000E+00 6.50000E+00
 -1        46 1.00000E+00 0.00000E+00 7.00000E+00
 -1        47 1.00000E+00 0.00000E+00 7.50000E+00
 -1        48 0.00000E+00 0.00000E+00 7.50000E+00
 -1        49 0.00000E+00 0.00000E+00 7.00000E+00
 -1        50 0.00000E+00 0.00000E+00 6.50000E+00
 -1        51 0.00000E+00 0.00000E+00 6.00000E+00
 -1        74 1.00000E+00 1.00000E+00 6.00000E+00
 -1        75 1.00000E+00 1.00000E+00 6.50000E+00
 -1        76 1.00000E+00 1.00000E+00 7.00000E+00
 -1        77 1.00000E+00 1.00000E+00 7.50000E+00
 -1        89 0.00000E+00 1.00000E+00 6.00000E+00
 -1        90 0.00000E+00 1.00000E+00 6.50000E+00
 -1        91 0.00000E+00 1.00000E+00 7.00000E+00
 -1        92 0.00000E+00 1.00000E+00 7.50000E+00
 -1        98 5.00000E-01 2.50000E-01 8.00000E+00
 -1        99 2.50000E-01 5.00000E-01 8.00000E+00
 -1       100 5.00000E-01 5.00000E-01 8.00000E+00
 -1       101 7.50000E-01 5.00000E-01 8.00000E+00
 -1       102 5.00000E-01 7.50000E-01 8.00000E+00
 -1       124 2.50000E-01 0.00000E+00 6.00000E+00
 -1       125 5.00000E-01 0.00000E+00 6.00000E+00
 -1       126 7.50000E-01 0.00000E+00 6.00000E+00
 -1       127 5.00000E-01 0.00000E+00 6.50000E+00
 -1       128 2.50000E-01 0.00000E+00 7.00000E+00
 -1       129 5.00000E-01 0.00000E+00 7.00000E+00
 -1       130 7.50000E-01 0.00000E+00 7.00000E+00
 -1       131 5.00000E-01 0.00000E+00 7.50000E+00
 -1       153 1.00000E+00 2.50000E-01 6.00000E+00
 -1       154 1.00000E+00 5.00000E-01 6.00000E+00
 -1       155 1.00000E+00 7.50000E-01 6.00000E+00
 -1       156 1.00000E+00 5.00000E-01 6.50000E+00
 -1       157 1.00000E+00 2.50000E-01 7.00000E+00
 -1       158 1.00000E+00 5.00000E-01 7.00000E+00
 -1       159 1.00000E+00 7.50000E-01 7.00000E+00
 -1       160 1.00000E+00 5.00000E-01 7.50000E+00
 -1       182 7.50000E-01 1.00000E+00 6.00000E+00
 -1       183 5.00000E-01 1.00000E+00 6.00000E+00
 -1       184 2.50000E-01 1.00000E+00 6.00000E+00
 -1       185 5.00000E-01 1.00000E+00 6.50000E+00
 -1       186 7.50000E-01 1.00000E+00 7.00000E+00
 -1       187 5.00000E-01 1.00000E+00 7.00000E+00
 -1       188 2.50000E-01 1.00000E+00 7.00000E+00
 -1       189 5.00000E-01 1.00000E+00 7.50000E+00
 -1       211 0.00000E+00 7.50000E-01 6.00000E+00
 -1       212 0.00000E+00 5.00000E-01 6.00000E+00
 -1       213 0.00000E+00 2.50000E-01 6.00000E+00
 -1       214 0.00000E+00 5.00000E-01 6.50000E+00
 -1       215 0.00000E+00 7.50000E-01 7.00000E+00
 -1       216 0.00000E+00 5.00000E-01 7.00000E+00
 -1       217 0.00000E+00 2.50000E-01 7.00000E+00
 -1       218 0.00000E+00 5.00000E-01 7.50000E+00
 -1       250 5.00000E-01 2.50000E-01 6.00000E+00
 -1       251 2.50000E-01 5.00000E-01 6.00000E+00
 -1       252 5.00000E-01 5.00000E-01 6.00000E+00
 -1       253 7.50000E-01 5.00000E-01 6.00000E+00
 -1       254 5.00000E-01 7.50000E-01 6.00000E+00
 -1       255 5.00000E-01 5.00000E-01 6.50000E+00
 -1       256 5.00000E-01 2.50000E-01 7.00000E+00
 -1       257 2.50000E-01 5.00000E-01 7.00000E+00
 -1       258 5.00000E-01 5.00000E-01 7.00000E+00
 -1       259 7.50000E-01 5.00000E-01 7.00000E+00
 -1       260 5.00000E-01 7.50000E-01 7.00000E+00
 -1       261 5.00000E-01 5.00000E-01 7.50000E+00
 -3
    3C                             8                                     1
 -1        25    4    0    1
 -2        51       125       252       212        49       129       258       216       124       250
 -2       251       213        50       127       255       214       128       256       257       217
 -1        26    4    0    1
 -2       125        44       154       252       129        46       158       258       126       153
 -2       253       250       127        45       156       255       130       157       259       256
 -1        27    4    0    1
 -2       212       252       183        89       216       258       187        91       251       254
 -2       184       211       214       255       185        90       257       260       188       215
 -1        28    4    0    1
 -2       252       154        74       183       258       158        76       187       253       155
 -2       182       254       255       156        75       185       259       159       186       260
 -1        29    4    0    1
 -2        49       129       258       216         5        22       100        31       128       256
 -2       257       217        48       131       261       218        21        98        99        32
 -1        30    4    0    1
 -2       129        46       158       258        22         6        25       100       130       157
 -2       259       256       131        47       160       261        23        24       101        98
 -1        31    4    0    1
 -2       216       258       187        91        31       100        28         8       257       260
 -2       188       215       218       261       189        92        99       102        29        30
 -1        32    4    0    1
 -2       258       158        76       187       100        25         7        28       259       159
 -2       186       260       261       160        77       189       101        26        27       102
 -3
    1PSTEP                         1           1           1          
  100CL  101 5.00000E-03          81                     1    1           1
 -4  DISP        4    1
 -5  D1          1    2    1    0
 -5  D2          1    2    2    0
 -5  D3          1    2    3    0
 -5  ALL         1    2    0    0    1ALL
 -1         5 0.00000E+00 0.00000E+00 0.00000E+00
 -1         6 0.00000E+00 0.00000E+00 0.00000E+00
 -1         7 0.00000E+00 0.00000E+00 0.00000E+00
 -1         8 0.00000E+00 0.00000E+00 0.00000E+00
 -1        21 0.00000E+00 0.00000E+00 0.00000E+00
 -1        22 0.00000E+00 0.00000E+00 0.00000E+00
 -1        23 0.00000E+00 0.00000E+00 0.00000E+00
 -1        24 0.00000E+00 0.00000E+00 0.00000E+00
 -1        25 0.00000E+00 0.00000E+00 0.00000E+00
 -1        26 0.00000E+00 0.00000E+00 0.00000E+00
 -1        27 0.00000E+00 0.00000E+00 0.00000E+00
 -1        28 0.00000E+00 0.00000E+00 0.00000E+00
 -1        29 0.00000E+00 0.00000E+00 0.00000E+00
 -1        30 0.00000E+00 0.00000E+00 0.00000E+00
 -1        31 0.00000E+00 0.00000E+00 0.00000E+00
 -1        32 0.00000E+00 0.00000E+00 0.00000E+00
 -1        44-5.98871E-05-3.46511E-03 4.48618E-04
 -1        45 5.68434E-05-2.56210E-03 7.85385E-04
 -1        46-4.78442E-05-1.79597E-03 9.49299E-04
 -1        47 1.31001E-04-6.75056E-04 5.43222E-04
 -1        48-1.31011E-04-6.75062E-04 5.43240E-04
 -1        49 4.77991E-05-1.79598E-03 9.49338E-04
 -1        50-5.69313E-05-2.56211E-03 7.85452E-04
 -1        51 5.96953E-05-3.46513E-03 4.48728E-04
 -1        74 3.18094E-04-4.41111E-03-4.94776E-04
 -1        75 1.90690E-04-2.97177E-03-7.84694E-04
 -1        76-1.10155E-04-1.59805E-03-9.50030E-04
 -1        77-2.07807E-04-5.26868E-04-5.58239E-04
 -1        89-3.18285E-04-4.41109E-03-4.94666E-04
 -1        90-1.90778E-04-2.97176E-03-7.84626E-04
 -1        91 1.10110E-04-1.59804E-03-9.49991E-04
 -1        92 2.07797E-04-5.26861E-04-5.58221E-04
 -1        98 0.00000E+00 0.00000E+00 0.00000E+00
 -1        99 0.00000E+00 0.00000E+00 0.00000E+00
 -1       100 0.00000E+00 0.00000E+00 0.00000E+00
 -1       101 0.00000E+00 0.00000E+00 0.00000E+00
 -1       102 0.00000E+00 0.00000E+00 0.00000E+00
 -1       124 1.49887E-04-2.96652E-03 4.29790E-04
 -1       125-7.77140E-08-3.58991E-03 4.48889E-04
 -1       126-1.50057E-04-2.96651E-03 4.29749E-04
 -1       127-4.92033E-08-2.56285E-03 9.03885E-04
 -1       128-9.25796E-06-1.95287E-03 9.48228E-04
 -1       129-1.59534E-08-1.81443E-03 9.41536E-04
 -1       130 9.21995E-06-1.95286E-03 9.48206E-04
 -1       131-3.37352E-09-7.36459E-04 5.56392E-04
 -1       153 6.98349E-05-3.63613E-03 1.91195E-04
 -1       154-1.20365E-04-2.50271E-03-2.09017E-05
 -1       155-6.51457E-05-3.88883E-03-2.38089E-04
 -1       156-1.20220E-04-2.78970E-03-6.45362E-05
 -1       157-2.06231E-05-1.50895E-03 3.92347E-04
 -1       158 8.83675E-05-1.56687E-03-2.94466E-05
 -1       159 4.67381E-05-1.47561E-03-4.11125E-04
 -1       160 3.97963E-05-6.56541E-04 4.87482E-06
 -1       182 1.15111E-04-2.56329E-03-4.71307E-04
 -1       183-7.77448E-08-4.35524E-03-4.76539E-04
 -1       184-1.15281E-04-2.56328E-03-4.71266E-04
 -1       185-4.91578E-08-2.83336E-03-8.74209E-04
 -1       186-4.41909E-05-2.16230E-03-9.82716E-04
 -1       187-1.59963E-08-1.83182E-03-9.63778E-04
 -1       188 4.41528E-05-2.16230E-03-9.82693E-04
 -1       189-3.37085E-09-7.19991E-04-5.64532E-04
 -1       211 6.49351E-05-3.88882E-03-2.37986E-04
 -1       212 1.20146E-04-2.50271E-03-2.07899E-05
 -1       213-7.00453E-05-3.63615E-03 1.91298E-04
 -1       214 1.20135E-04-2.78970E-03-6.44674E-05
 -1       215-4.67873E-05-1.47560E-03-4.11084E-04
 -1       216-8.84209E-05-1.56687E-03-2.94074E-05
 -1       217 2.05738E-05-1.50895E-03 3.92389E-04
 -1       218-3.98089E-05-6.56541E-04 4.88985E-06
 -1       250-7.86301E-08-4.08205E-03 1.74711E-04
 -1       251 3.02060E-05-2.57234E-03-1.04098E-05
 -1       252-7.86921E-08-3.12461E-03-1.55826E-05
 -1       253-3.03910E-05-2.57234E-03-1.04375E-05
 -1       254-7.87453E-08-4.41310E-03-2.54075E-04
 -1       255-5.31390E-08-2.59930E-03-3.19683E-05
 -1       256-1.60537E-08-1.60759E-03 3.95689E-04
 -1       257-4.11286E-05-1.74942E-03-1.19873E-05
 -1       258-1.53321E-08-1.79053E-03-1.45599E-05
 -1       259 4.10873E-05-1.74942E-03-1.20130E-05
 -1       260-1.60553E-08-1.62274E-03-4.18327E-04
 -1       261-5.35651E-09-7.17047E-04-1.97899E-06
 -3
    1PSTEP                         2           2           1          
  100CL  102 1.00000E-02          81                     1    2           1
 -4  DISP        4    1
 -5  D1          1    2    1    0
 -5  D2          1    2    2    0
 -5  D3          1    2    3    0
 -5  ALL         1    2    0    0    1ALL
 -1         5 0.00000E+00 0.00000E+00 0.00000E+00
 -1         6 0.00000E+00 0.00000E+00 0.00000E+00
 -1         7 0.00000E+00 0.00000E+00 0.00000E+00
 -1         8 0.00000E+00 0.00000E+00 0.00000E+00
 -1        21 0.00000E+00 0.00000E+00 0.00000E+00
 -1        22 0.00000E+00 0.00000E+00 0.00000E+00
 -1        23 0.00000E+00 0.00000E+00 0.00000E+00
 -1        24 0.00000E+00 0.00000E+00 0.00000E+00
 -1        25 0.00000E+00 0.00000E+00 0.00000E+00
 -1        26 0.00000E+00 0.00000E+00 0.00000E+00
 -1        27 0.00000E+00 0.00000E+00 0.00000E+00
 -1        28 0.00000E+00 0.00000E+00 0.00000E+00
 -1        29 0.00000E+00 0.00000E+00 0.00000E+00
 -1        30 0.00000E+00 0.00000E+00 0.00000E+00
 -1        31 0.00000E+00 0.00000E+00 0.00000E+00
 -1        32 0.00000E+00 0.00000E+00 0.00000E+00
 -1        44-1.62115E-04 1.59737E-03-2.33985E-04
 -1        45-4.09441E-05 1.24296E-03-3.77516E-04
 -1        46 4.46075E-05 9.17570E-04-4.32180E-04
 -1        47-5.22781E-05 3.71836E-04-2.84126E-04
 -1        48 5.22846E-05 3.71837E-04-2.84116E-04
 -1        49-4.45784E-05 9.17540E-04-4.32163E-04
 -1        50 4.09180E-05 1.24301E-03-3.77595E-04
 -1        51 1.62141E-04 1.59743E-03-2.34051E-04
 -1        74 1.41871E-04 1.62124E-03 2.34345E-04
 -1        75 2.87900E-05 1.25588E-03 3.77652E-04
 -1        76-3.82189E-05 9.11049E-04 4.32183E-04
 -1        77 5.57774E-05 3.67986E-04 2.84176E-04
 -1        89-1.41819E-04 1.62113E-03 2.34284E-04
 -1        90-2.88484E-05 1.25586E-03 3.77617E-04
 -1        91 3.82760E-05 9.11043E-04 4.32186E-04
 -1        92-5.57792E-05 3.67992E-04 2.84198E-04
 -1        98 0.00000E+00 0.00000E+00 0.00000E+00
 -1        99 0.00000E+00 0.00000E+00 0.00000E+00
 -1       100 0.00000E+00 0.00000E+00 0.00000E+00
 -1       101 0.00000E+00 0.00000E+00 0.00000E+00
 -1       102 0.00000E+00 0.00000E+00 0.00000E+00
 -1       124 9.60335E-06 1.48432E-03-2.20510E-04
 -1       125-4.86766E-09 1.76365E-03-2.31443E-04
 -1       126-9.57975E-06 1.48434E-03-2.20540E-04
 -1       127 1.60799E-08 1.30210E-03-4.18445E-04
 -1       128-4.77783E-06 9.58144E-04-4.63542E-04
 -1       129-8.91432E-09 8.89780E-04-4.72905E-04
 -1       130 4.77793E-06 9.58150E-04-4.63534E-04
 -1       131 3.47349E-09 3.75435E-04-2.76039E-04
 -1       153 1.29293E-04 1.91442E-03-1.03909E-04
 -1       154-2.90158E-06 1.69859E-03 1.62593E-07
 -1       155-1.22486E-04 1.92547E-03 1.04168E-04
 -1       156 9.87387E-07 1.40706E-03 1.53481E-06
 -1       157-2.59992E-05 7.94611E-04-1.86005E-04
 -1       158-1.66482E-07 8.10150E-04 5.72335E-07
 -1       159 2.44166E-05 7.91787E-04 1.85992E-04
 -1       160-2.59943E-07 3.07933E-04 2.02559E-08
 -1       182 1.70904E-07 1.47572E-03 2.20771E-04
 -1       183-9.04342E-08 1.77448E-03 2.31777E-04
 -1       184-2.14972E-07 1.47572E-03 2.20814E-04
 -1       185 3.14630E-08 1.30265E-03 4.15945E-04
 -1       186-1.97237E-06 9.60663E-04 4.63860E-04
 -1       187-2.83559E-08 8.89343E-04 4.72149E-04
 -1       188 1.96645E-06 9.60648E-04 4.63845E-04
 -1       189 5.88468E-09 3.75504E-04 2.75992E-04
 -1       211 1.22571E-04 1.92542E-03 1.04152E-04
 -1       212 2.96638E-06 1.69868E-03 1.78837E-08
 -1       213-1.29200E-04 1.91452E-03-1.03941E-04
 -1       214-9.52573E-07 1.40704E-03 1.51210E-06
 -1       215-2.43961E-05 7.91801E-04 1.85974E-04
 -1       216 1.59778E-07 8.10171E-04 5.73880E-07
 -1       217 2.60016E-05 7.94601E-04-1.86015E-04
 -1       218 2.61791E-07 3.07930E-04 1.50079E-08
 -1       250 3.26781E-08 1.90962E-03-1.02903E-04
 -1       251-1.76951E-06 1.20894E-03-1.92118E-07
 -1       252 8.07195E-08 1.54302E-03 1.48531E-07
 -1       253 1.86904E-06 1.20889E-03-9.82514E-08
 -1       254-1.72432E-08 1.90797E-03 1.03812E-04
 -1       255 6.24686E-09 1.37665E-03 1.63443E-07
 -1       256 2.95535E-09 7.82579E-04-2.07397E-04
 -1       257 8.08052E-07 9.14442E-04 4.91203E-08
 -1       258 1.20018E-08 8.11314E-04 6.71939E-08
 -1       259-7.95504E-07 9.14433E-04 4.27504E-08
 -1       260-5.67493E-09 7.83848E-04 2.07548E-04
 -1       261-4.47023E-09 3.48217E-04 9.70059E-09
 -3
    1PSTEP                         3           3           1          
  100CL  103 1.50000E-02          81                     1    3           1
 -4  DISP        4    1
 -5  D1          1    2    1    0
 -5  D2          1    2    2    0
 -5  D3          1    2    3    0
 -5  ALL         1    2    0    0    1ALL
 -1         5 0.00000E+00 0.00000E+00 0.00000E+00
 -1         6 0.00000E+00 0.00000E+00 0.00000E+00
 -1         7 0.00000E+00 0.00000E+00 0.00000E+00
 -1         8 0.00000E+00 0.00000E+00 0.00000E+00
 -1        21 0.00000E+00 0.00000E+00 0.00000E+00
 -1        22 0.00000E+00 0.00000E+00 0.00000E+00
 -1        23 0.00000E+00 0.00000E+00 0.00000E+00
 -1        24 0.00000E+00 0.00000E+00 0.00000E+00
 -1        25 0.00000E+00 0.00000E+00 0.00000E+00
 -1        26 0.00000E+00 0.00000E+00 0.00000E+00
 -1        27 0.00000E+00 0.00000E+00 0.00000E+00
 -1        28 0.00000E+00 0.00000E+00 0.00000E+00
 -1        29 0.00000E+00 0.00000E+00 0.00000E+00
 -1        30 0.00000E+00 0.00000E+00 0.00000E+00
 -1        31 0.00000E+00 0.00000E+00 0.00000E+00
 -1        32 0.00000E+00 0.00000E+00 0.00000E+00
 -1        44 1.32958E-04-1.26275E-03 1.85557E-04
 -1        45 3.37818E-05-9.83805E-04 2.99092E-04
 -1        46-3.59820E-05-7.27291E-04 3.41974E-04
 -1        47 4.09636E-05-2.95204E-04 2.25304E-04
 -1        48-4.09688E-05-2.95205E-04 2.25293E-04
 -1        49 3.59350E-05-7.27304E-04 3.41962E-04
 -1        50-3.37760E-05-9.83795E-04 2.99120E-04
 -1        51-1.33025E-04-1.26280E-03 1.85616E-04
 -1        74-1.16211E-04-1.28102E-03-1.85592E-04
 -1        75-2.40093E-05-9.93906E-04-2.99200E-04
 -1        76 3.14595E-05-7.22644E-04-3.41958E-04
 -1        77-4.37247E-05-2.92315E-04-2.25296E-04
 -1        89 1.16299E-04-1.28093E-03-1.85602E-04
 -1        90 2.39377E-05-9.93896E-04-2.99170E-04
 -1        91-3.14602E-05-7.22655E-04-3.41931E-04
 -1        92 4.37130E-05-2.92312E-04-2.25276E-04
 -1        98 0.00000E+00 0.00000E+00 0.00000E+00
 -1        99 0.00000E+00 0.00000E+00 0.00000E+00
 -1       100 0.00000E+00 0.00000E+00 0.00000E+00
 -1       101 0.00000E+00 0.00000E+00 0.00000E+00
 -1       102 0.00000E+00 0.00000E+00 0.00000E+00
 -1       124-1.11610E-05-1.17675E-03 1.74882E-04
 -1       125 2.78733E-08-1.39747E-03 1.83555E-04
 -1       126 1.11487E-05-1.17675E-03 1.74933E-04
 -1       127-3.35333E-08-1.03237E-03 3.31532E-04
 -1       128 4.40619E-06-7.58854E-04 3.67237E-04
 -1       129 4.87306E-09-7.04884E-04 3.74947E-04
 -1       130-4.42254E-06-7.58844E-04 3.67226E-04
 -1       131-5.20479E-09-2.97356E-04 2.18667E-04
 -1       153-1.05345E-04-1.51596E-03 8.25126E-05
 -1       154 2.76515E-06-1.35149E-03-1.73175E-08
 -1       155 9.95528E-05-1.52894E-03-8.24749E-05
 -1       156-5.58618E-07-1.11475E-03-1.11789E-06
 -1       157 2.12756E-05-6.30623E-04 1.47258E-04
 -1       158-2.66832E-07-6.42593E-04-4.02617E-07
 -1       159-2.00502E-05-6.27544E-04-1.47173E-04
 -1       160 1.31102E-07-2.43748E-04-2.34112E-08
 -1       182 9.02961E-07-1.17034E-03-1.74991E-04
 -1       183-5.42397E-08-1.40481E-03-1.83800E-04
 -1       184-9.23972E-07-1.17029E-03-1.74882E-04
 -1       185 7.80554E-09-1.03216E-03-3.29417E-04
 -1       186 1.42889E-06-7.60290E-04-3.67376E-04
 -1       187-2.96135E-08-7.03791E-04-3.74185E-04
 -1       188-1.45619E-06-7.60295E-04-3.67386E-04
 -1       189-2.50503E-09-2.97409E-04-2.18603E-04
 -1       211-9.95138E-05-1.52886E-03-8.24699E-05
 -1       212-2.75266E-06-1.35143E-03-1.15233E-09
 -1       213 1.05309E-04-1.51597E-03 8.24610E-05
 -1       214 5.00029E-07-1.11477E-03-1.10772E-06
 -1       215 2.00505E-05-6.27548E-04-1.47152E-04
 -1       216 2.64048E-07-6.42588E-04-3.89958E-07
 -1       217-2.12984E-05-6.30624E-04 1.47277E-04
 -1       218-1.41969E-07-2.43751E-04-1.19361E-08
 -1       250-1.12280E-08-1.51349E-03 8.16684E-05
 -1       251 3.49286E-06-9.57690E-04 1.71246E-07
 -1       252-6.09886E-08-1.22102E-03-1.37494E-07
 -1       253-3.54760E-06-9.57723E-04 1.17590E-07
 -1       254-6.19414E-08-1.50731E-03-8.22185E-05
 -1       255-8.90589E-09-1.09152E-03-1.51902E-08
 -1       256-9.38172E-09-6.19376E-04 1.64499E-04
 -1       257-9.46531E-07-7.24951E-04 1.52236E-08
 -1       258-2.10433E-08-6.42017E-04 1.43706E-08
 -1       259 9.23392E-07-7.24953E-04 1.97534E-08
 -1       260-2.42924E-08-6.20974E-04-1.64533E-04
 -1       261-1.35731E-09-2.75911E-04-1.10793E-08
 -3
    1PSTEP                         4           4           1          
  100CL  104 2.00000E-02          81                     1    4           1
 -4  DISP        4    1
 -5  D1          1    2    1    0
 -5  D2          1    2    2    0
 -5  D3          1    2    3    0
 -5  ALL         1    2    0    0    1ALL
 -1         5 0.00000E+00 0.00000E+00 0.00000E+00
 -1         6 0.00000E+00 0.00000E+00 0.00000E+00
 -1         7 0.00000E+00 0.00000E+00 0.00000E+00
 -1         8 0.00000E+00 0.00000E+00 0.00000E+00
 -1        21 0.00000E+00 0.00000E+00 0.00000E+00
 -1        22 0.00000E+00 0.00000E+00 0.00000E+00
 -1        23 0.00000E+00 0.00000E+00 0.00000E+00
 -1        24 0.00000E+00 0.00000E+00 0.00000E+00
 -1        25 0.00000E+00 0.00000E+00 0.00000E+00
 -1        26 0.00000E+00 0.00000E+00 0.00000E+00
 -1        27 0.00000E+00 0.00000E+00 0.00000E+00
 -1        28 0.00000E+00 0.00000E+00 0.00000E+00
 -1        29 0.00000E+00 0.00000E+00 0.00000E+00
 -1        30 0.00000E+00 0.00000E+00 0.00000E+00
 -1        31 0.00000E+00 0.00000E+00 0.00000E+00
 -1        32 0.00000E+00 0.00000E+00 0.00000E+00
 -1        44-1.05710E-04 9.77357E-04-1.43969E-04
 -1        45-2.68495E-05 7.62247E-04-2.32044E-04
 -1        46 2.85227E-05 5.65184E-04-2.65040E-04
 -1        47-3.14848E-05 2.29549E-04-1.74910E-04
 -1        48 3.14889E-05 2.29552E-04-1.74892E-04
 -1        49-2.84888E-05 5.65195E-04-2.65008E-04
 -1        50 2.68183E-05 7.62247E-04-2.32087E-04
 -1        51 1.05666E-04 9.77501E-04-1.44033E-04
 -1        74 9.39451E-05 9.88436E-04 1.44002E-04
 -1        75 2.02119E-05 7.68603E-04 2.32113E-04
 -1        76-2.54126E-05 5.62310E-04 2.65075E-04
 -1        77 3.33711E-05 2.27762E-04 1.74910E-04
 -1        89-9.40014E-05 9.88366E-04 1.44011E-04
 -1        90-2.01941E-05 7.68590E-04 2.32092E-04
 -1        91 2.54396E-05 5.62327E-04 2.65059E-04
 -1        92-3.33617E-05 2.27766E-04 1.74904E-04
 -1        98 0.00000E+00 0.00000E+00 0.00000E+00
 -1        99 0.00000E+00 0.00000E+00 0.00000E+00
 -1       100 0.00000E+00 0.00000E+00 0.00000E+00
 -1       101 0.00000E+00 0.00000E+00 0.00000E+00
 -1       102 0.00000E+00 0.00000E+00 0.00000E+00
 -1       124 8.39474E-06 9.13673E-04-1.35667E-04
 -1       125-4.72172E-08 1.08368E-03-1.42490E-04
 -1       126-8.44857E-06 9.13631E-04-1.35703E-04
 -1       127 1.18537E-08 8.01330E-04-2.57045E-04
 -1       128-3.39444E-06 5.88563E-04-2.84862E-04
 -1       129-4.34266E-09 5.46639E-04-2.90962E-04
 -1       130 3.40266E-06 5.88552E-04-2.84862E-04
 -1       131 4.24724E-09 2.30724E-04-1.69587E-04
 -1       153 8.32557E-05 1.17838E-03-6.39955E-05
 -1       154-2.41782E-06 1.05219E-03-5.06265E-08
 -1       155-7.90591E-05 1.18642E-03 6.40135E-05
 -1       156 1.24887E-07 8.64775E-04 6.71096E-07
 -1       157-1.68452E-05 4.89658E-04-1.14117E-04
 -1       158 3.38514E-07 4.99167E-04 2.67448E-07
 -1       159 1.59345E-05 4.87727E-04 1.14052E-04
 -1       160-9.23869E-09 1.89032E-04 3.52895E-08
 -1       182 1.95846E-07 9.09884E-04 1.35726E-04
 -1       183-6.13776E-09 1.08715E-03 1.42584E-04
 -1       184-2.13053E-07 9.09874E-04 1.35670E-04
 -1       185 2.16029E-09 8.00678E-04 2.55599E-04
 -1       186-1.39261E-06 5.89355E-04 2.84954E-04
 -1       187 1.03748E-08 5.46246E-04 2.90440E-04
 -1       188 1.41202E-06 5.89358E-04 2.84958E-04
 -1       189 5.89399E-09 2.30905E-04 1.69559E-04
 -1       211 7.90104E-05 1.18636E-03 6.40137E-05
 -1       212 2.32979E-06 1.05218E-03-5.94007E-08
 -1       213-8.33030E-05 1.17847E-03-6.38832E-05
 -1       214-6.78429E-08 8.64805E-04 6.77858E-07
 -1       215-1.59359E-05 4.87738E-04 1.14040E-04
 -1       216-3.59915E-07 4.99164E-04 2.64968E-07
 -1       217 1.68469E-05 4.89657E-04-1.14135E-04
 -1       218 1.92950E-08 1.89036E-04 2.42104E-08
 -1       250 9.45855E-09 1.17134E-03-6.34757E-05
 -1       251-1.96854E-06 7.42657E-04-1.78095E-07
 -1       252 7.35717E-08 9.46272E-04-4.55735E-08
 -1       253 1.99641E-06 7.42661E-04-9.42490E-08
 -1       254 3.08436E-08 1.16666E-03 6.36664E-05
 -1       255-6.67038E-09 8.47698E-04 2.67174E-08
 -1       256 1.12313E-08 4.80570E-04-1.27722E-04
 -1       257 5.22186E-07 5.62795E-04 7.49802E-10
 -1       258 2.50941E-08 4.97413E-04 4.27844E-09
 -1       259-5.05650E-07 5.62796E-04-1.68348E-08
 -1       260 1.79752E-08 4.81772E-04 1.27759E-04
 -1       261-1.71275E-09 2.14026E-04-5.79515E-09
 -3
    1PSTEP                         5           5           1          
  100CL  105 2.50000E-02          81                     1    5           1
 -4  DISP        4    1
 -5  D1          1    2    1    0
 -5  D2          1    2    2    0
 -5  D3          1    2    3    0
 -5  ALL         1    2    0    0    1ALL
 -1         5 0.00000E+00 0.00000E+00 0.00000E+00
 -1         6 0.00000E+00 0.00000E+00 0.00000E+00
 -1         7 0.00000E+00 0.00000E+00 0.00000E+00
 -1         8 0.00000E+00 0.00000E+00 0.00000E+00
 -1        21 0.00000E+00 0.00000E+00 0.00000E+00
 -1        22 0.00000E+00 0.00000E+00 0.00000E+00
 -1        23 0.00000E+00 0.00000E+00 0.00000E+00
 -1        24 0.00000E+00 0.00000E+00 0.00000E+00
 -1        25 0.00000E+00 0.00000E+00 0.00000E+00
 -1        26 0.00000E+00 0.00000E+00 0.00000E+00
 -1        27 0.00000E+00 0.00000E+00 0.00000E+00
 -1        28 0.00000E+00 0.00000E+00 0.00000E+00
 -1        29 0.00000E+00 0.00000E+00 0.00000E+00
 -1        30 0.00000E+00 0.00000E+00 0.00000E+00
 -1        31 0.00000E+00 0.00000E+00 0.00000E+00
 -1        32 0.00000E+00 0.00000E+00 0.00000E+00
 -1        44 7.46406E-05-7.42482E-04 1.08754E-04
 -1        45 1.83646E-05-5.77700E-04 1.75458E-04
 -1        46-2.06227E-05-4.25868E-04 2.00503E-04
 -1        47 2.43990E-05-1.72618E-04 1.31988E-04
 -1        48-2.44038E-05-1.72620E-04 1.31979E-04
 -1        49 2.05958E-05-4.25861E-04 2.00489E-04
 -1        50-1.83429E-05-5.77721E-04 1.75478E-04
 -1        51-7.46125E-05-7.42514E-04 1.08740E-04
 -1        74-6.94012E-05-7.50607E-04-1.08744E-04
 -1        75-1.49138E-05-5.81777E-04-1.75381E-04
 -1        76 1.85357E-05-4.23430E-04-2.00401E-04
 -1        77-2.53652E-05-1.71376E-04-1.31990E-04
 -1        89 6.94810E-05-7.50530E-04-1.08759E-04
 -1        90 1.48888E-05-5.81770E-04-1.75359E-04
 -1        91-1.85508E-05-4.23442E-04-2.00393E-04
 -1        92 2.53551E-05-1.71378E-04-1.31986E-04
 -1        98 0.00000E+00 0.00000E+00 0.00000E+00
 -1        99 0.00000E+00 0.00000E+00 0.00000E+00
 -1       100 0.00000E+00 0.00000E+00 0.00000E+00
 -1       101 0.00000E+00 0.00000E+00 0.00000E+00
 -1       102 0.00000E+00 0.00000E+00 0.00000E+00
 -1       124-2.91140E-06-6.88752E-04 1.02444E-04
 -1       125 3.82212E-08-8.19110E-04 1.07615E-04
 -1       126 2.94990E-06-6.88767E-04 1.02498E-04
 -1       127-1.47917E-08-6.04667E-04 1.93908E-04
 -1       128 1.91758E-06-4.44853E-04 2.15200E-04
 -1       129 6.74424E-09-4.12871E-04 2.19545E-04
 -1       130-1.92073E-06-4.44850E-04 2.15197E-04
 -1       131-3.97732E-09-1.74319E-04 1.28162E-04
 -1       153-6.00886E-05-8.91352E-04 4.83663E-05
 -1       154 2.96742E-07-7.90252E-04 1.13577E-08
 -1       155 5.86814E-05-8.93027E-04-4.82757E-05
 -1       156-6.64001E-07-6.52630E-04-4.19965E-07
 -1       157 1.21000E-05-3.68915E-04 8.62835E-05
 -1       158 3.59473E-07-3.76841E-04-1.81555E-07
 -1       159-1.17828E-05-3.68318E-04-8.62676E-05
 -1       160 1.46927E-07-1.43031E-04-1.83335E-08
 -1       182-2.61053E-06-6.85651E-04-1.02504E-04
 -1       183-2.59760E-09-8.23558E-04-1.07679E-04
 -1       184 2.63196E-06-6.85627E-04-1.02460E-04
 -1       185 6.91891E-10-6.05334E-04-1.93124E-04
 -1       186 1.46581E-06-4.45576E-04-2.15250E-04
 -1       187-1.33399E-08-4.12232E-04-2.19296E-04
 -1       188-1.48270E-06-4.45578E-04-2.15256E-04
 -1       189-4.75369E-09-1.74070E-04-1.28091E-04
 -1       211-5.86305E-05-8.92968E-04-4.83007E-05
 -1       212-2.44119E-07-7.90246E-04 3.56321E-08
 -1       213 6.01093E-05-8.91387E-04 4.83046E-05
 -1       214 6.16974E-07-6.52639E-04-4.22825E-07
 -1       215 1.17845E-05-3.68331E-04-8.62534E-05
 -1       216-3.47170E-07-3.76849E-04-1.78614E-07
 -1       217-1.21032E-05-3.68911E-04 8.62920E-05
 -1       218-1.55041E-07-1.43033E-04-7.09559E-09
 -1       250-5.47158E-09-8.83508E-04 4.79496E-05
 -1       251-2.59401E-07-5.61686E-04 9.11753E-08
 -1       252-6.17580E-08-7.14432E-04-4.13221E-08
 -1       253 2.27257E-07-5.61689E-04 1.74926E-08
 -1       254-3.17032E-08-8.85480E-04-4.81578E-05
 -1       255 3.96952E-09-6.39263E-04-4.08543E-08
 -1       256-8.91834E-09-3.63603E-04 9.63743E-05
 -1       257-1.46161E-07-4.24592E-04 2.42633E-09
 -1       258-2.15636E-08-3.76386E-04 4.51114E-09
 -1       259 1.28677E-07-4.24589E-04 1.54245E-08
 -1       260-1.73878E-08-3.63320E-04-9.63779E-05
 -1       261 1.30895E-09-1.61760E-04-2.44840E-08
 -3
    1PSTEP                         6           6           1          
  100CL  106 3.00000E-02          81                     1    6           1
 -4  DISP        4    1
 -5  D1          1    2    1    0
 -5  D2          1    2    2    0
 -5  D3          1    2    3    0
 -5  ALL         1    2    0    0    1ALL
 -1         5 0.00000E+00 0.00000E+00 0.00000E+00
 -1         6 0.00000E+00 0.00000E+00 0.00000E+00
 -1         7 0.00000E+00 0.00000E+00 0.00000E+00
 -1         8 0.00000E+00 0.00000E+00 0.00000E+00
 -1        21 0.00000E+00 0.00000E+00 0.00000E+00
 -1        22 0.00000E+00 0.00000E+00 0.00000E+00
 -1        23 0.00000E+00 0.00000E+00 0.00000E+00
 -1        24 0.00000E+00 0.00000E+00 0.00000E+00
 -1        25 0.00000E+00 0.00000E+00 0.00000E+00
 -1        26 0.00000E+00 0.00000E+00 0.00000E+00
 -1        27 0.00000E+00 0.00000E+00 0.00000E+00
 -1        28 0.00000E+00 0.00000E+00 0.00000E+00
 -1        29 0.00000E+00 0.00000E+00 0.00000E+00
 -1        30 0.00000E+00 0.00000E+00 0.00000E+00
 -1        31 0.00000E+00 0.00000E+00 0.00000E+00
 -1        32 0.00000E+00 0.00000E+00 0.00000E+00
 -1        44-5.35065E-05 5.37690E-04-7.88000E-05
 -1        45-1.33944E-05 4.18224E-04-1.27163E-04
 -1        46 1.50275E-05 3.09035E-04-1.45403E-04
 -1        47-1.76697E-05 1.25187E-04-9.56025E-05