    1C
    1UUSER                                                              
    1UDATE              15.july.2018                                    
    1UTIME              19:54:44                                        
    1UHOST                                                              
    1UPGM               CalculiX                                        
    1UVERSION           Version 2.13                             
    1UCOMPILETIME       jue jun 14 00:40:39 CEST 2018                    
    1UDIR                                                               
    1UDBN                                                               
    1UMAT    1EL                                                        
    2C                            81                                     1
 -1         5 0.00000E+00 0.00000E+00 8.00000E+00
 -1         6 1.00000E+00 0.00000E+00 8.00000E+00
 -1         7 1.00000E+00 1.00000E+00 8.00000E+00
 -1         8 0.00000E+00 1.00000E+00 8.00000E+00
 -1        21 2.50000E-01 0.00000E+00 8.00000E+00
 -1        22 5.00000E-01 0.00000E+00 8.00000E+00
 -1        23 7.50000E-01 0.00000E+00 8.00000E+00
 -1        24 1.00000E+00 2.50000E-01 8.00000E+00
 -1        25 1.00000E+00 5.00000E-01 8.00000E+00
 -1        26 1.00000E+00 7.50000E-01 8.00000E+00
 -1        27 7.50000E-01 1.00000E+00 8.00000E+00
 -1        28 5.00000E-01 1.00000E+00 8.00000E+00
 -1        29 2.50000E-01 1.00000E+00 8.00000E+00
 -1        30 0.00000E+00 7.50000E-01 8.00000E+00
 -1        31 0.00000E+00 5.00000E-01 8.00000E+00
 -1        32 0.00000E+00 2.50000E-01 8.00000E+00
 -1        44 1.00000E+00 0.00000E+00 6.00000E+00
 -1        45 1.00000E+00 0.00000E+00 6.50000E+00
 -1        46 1.00000E+00 0.00000E+00 7.00000E+00
 -1        47 1.00000E+00 0.00000E+00 7.50000E+00
 -1        48 0.00000E+00 0.00000E+00 7.50000E+00
 -1        49 0.00000E+00 0.00000E+00 7.00000E+00
 -1        50 0.00000E+00 0.00000E+00 6.50000E+00
 -1        51 0.00000E+00 0.00000E+00 6.00000E+00
 -1        74 1.00000E+00 1.00000E+00 6.00000E+00
 -1        75 1.00000E+00 1.00000E+00 6.50000E+00
 -1        76 1.00000E+00 1.00000E+00 7.00000E+00
 -1        77 1.00000E+00 1.00000E+00 7.50000E+00
 -1        89 0.00000E+00 1.00000E+00 6.00000E+00
 -1        90 0.00000E+00 1.00000E+00 6.50000E+00
 -1        91 0.00000E+00 1.00000E+00 7.00000E+00
 -1        92 0.00000E+00 1.00000E+00 7.50000E+00
 -1        98 5.00000E-01 2.50000E-01 8.00000E+00
 -1        99 2.50000E-01 5.00000E-01 8.00000E+00
 -1       100 5.00000E-01 5.00000E-01 8.00000E+00
 -1       101 7.50000E-01 5.00000E-01 8.00000E+00
 -1       102 5.00000E-01 7.50000E-01 8.00000E+00
 -1       124 2.50000E-01 0.00000E+00 6.00000E+00
 -1       125 5.00000E-01 0.00000E+00 6.00000E+00
 -1       126 7.50000E-01 0.00000E+00 6.00000E+00
 -1       127 5.00000E-01 0.00000E+00 6.50000E+00
 -1       128 2.50000E-01 0.00000E+00 7.00000E+00
 -1       129 5.00000E-01 0.00000E+00 7.00000E+00
 -1       130 7.50000E-01 0.00000E+00 7.00000E+00
 -1       131 5.00000E-01 0.00000E+00 7.50000E+00
 -1       153 1.00000E+00 2.50000E-01 6.00000E+00
 -1       154 1.00000E+00 5.00000E-01 6.00000E+00
 -1       155 1.00000E+00 7.50000E-01 6.00000E+00
 -1       156 1.00000E+00 5.00000E-01 6.50000E+00
 -1       157 1.00000E+00 2.50000E-01 7.00000E+00
 -1       158 1.00000E+00 5.00000E-01 7.00000E+00
 -1       159 1.00000E+00 7.50000E-01 7.00000E+00
 -1       160 1.00000E+00 5.00000E-01 7.50000E+00
 -1       182 7.50000E-01 1.00000E+00 6.00000E+00
 -1       183 5.00000E-01 1.00000E+00 6.00000E+00
 -1       184 2.50000E-01 1.00000E+00 6.00000E+00
 -1       185 5.00000E-01 1.00000E+00 6.50000E+00
 -1       186 7.50000E-01 1.00000E+00 7.00000E+00
 -1       187 5.00000E-01 1.00000E+00 7.00000E+00
 -1       188 2.50000E-01 1.00000E+00 7.00000E+00
 -1       189 5.00000E-01 1.00000E+00 7.50000E+00
 -1       211 0.00000E+00 7.50000E-01 6.00000E+00
 -1       212 0.00000E+00 5.00000E-01 6.00000E+00
 -1       213 0.00000E+00 2.50000E-01 6.00000E+00
 -1       214 0.00000E+00 5.00000E-01 6.50000E+00
 -1       215 0.00000E+00 7.50000E-01 7.00000E+00
 -1       216 0.00000E+00 5.00000E-01 7.00000E+00
 -1       217 0.00000E+00 2.50000E-01 7.00000E+00
 -1       218 0.00000E+00 5.00000E-01 7.50000E+00
 -1       250 5.00000E-01 2.50000E-01 6.00000E+00
 -1       251 2.50000E-01 5.00000E-01 6.00000E+00
 -1       252 5.00000E-01 5.00000E-01 6.00000E+00
 -1       253 7.50000E-01 5.00000E-01 6.00000E+00
 -1       254 5.00000E-01 7.50000E-01 6.00000E+00
 -1       255 5.00000E-01 5.00000E-01 6.50000E+00
 -1       256 5.00000E-01 2.50000E-01 7.00000E+00
 -1       257 2.50000E-01 5.00000E-01 7.00000E+00
 -1       258 5.00000E-01 5.00000E-01 7.00000E+00
 -1       259 7.50000E-01 5.00000E-01 7.00000E+00
 -1       260 5.00000E-01 7.50000E-01 7.00000E+00
 -1       261 5.00000E-01 5.00000E-01 7.50000E+00
 -3
    3C                             8                                     1
 -1        25    4    0    1
 -2        51       125       252       212        49       129       258       216       124       250
 -2       251       213        50       127       255       214       128       256       257       217
 -1        26    4    0    1
 -2       125        44       154       252       129        46       158       258       126       153
 -2       253       250       127        45       156       255       130       157       259       256
 -1        27    4    0    1
 -2       212       252       183        89       216       258       187        91       251       254
 -2       184       211       214       255       185        90       257       260       188       215
 -1        28    4    0    1
 -2       252       154        74       183       258       158        76       187       253       155
 -2       182       254       255       156        75       185       259       159       186       260
 -1        29    4    0    1
 -2        49       129       258       216         5        22       100        31       128       256
 -2       257       217        48       131       261       218        21        98        99        32
 -1        30    4    0    1
 -2       129        46       158       258        22         6        25       100       130       157
 -2       259       256       131        47       160       261        23        24       101        98
 -1        31    4    0    1
 -2       216       258       187        91        31       100        28         8       257       260
 -2       188       215       218       261       189        92        99       102        29        30
 -1        32    4    0    1
 -2       258       158        76       187       100        25         7        28       259       159
 -2       186       260       261       160        77       189       101        26        27       102
 -3
    1PSTEP                         1           1           1          
  100CL  101 5.00000E-03          81                     1    1           1
 -4  DISP        4    1
 -5  D1          1    2    1    0
 -5  D2          1    2    2    0
 -5  D3          1    2    3    0
 -5  ALL         1    2    0    0    1ALL
 -1         5 0.00000E+00 0.00000E+00 0.00000E+00
 -1         6 0.00000E+00 0.00000E+00 0.00000E+00
 -1         7 0.00000E+00 0.00000E+00 0.00000E+00
 -1         8 0.00000E+00 0.00000E+00 0.00000E+00
 -1        21 0.00000E+00 0.00000E+00 0.00000E+00
 -1        22 0.00000E+00 0.00000E+00 0.00000E+00
 -1        23 0.00000E+00 0.00000E+00 0.00000E+00
 -1        24 0.00000E+00 0.00000E+00 0.00000E+00
 -1        25 0.00000E+00 0.00000E+00 0.00000E+00
 -1        26 0.00000E+00 0.00000E+00 0.00000E+00
 -1        27 0.00000E+00 0.00000E+00 0.00000E+00
 -1        28 0.00000E+00 0.00000E+00 0.00000E+00
 -1        29 0.00000E+00 0.00000E+00 0.00000E+00
 -1        30 0.00000E+00 0.00000E+00 0.00000E+00
 -1        31 0.00000E+00 0.00000E+00 0.00000E+00
 -1        32 0.00000E+00 0.00000E+00 0.00000E+00
 -1        44-6.01905E-05-3.46550E-03 4.48523E-04
 -1        45 5.67894E-05-2.56236E-03 7.85394E-04
 -1        46-4.77422E-05-1.79569E-03 9.49354E-04
 -1        47 1.31012E-04-6.74995E-04 5.43233E-04
 -1        48-1.31012E-04-6.74995E-04 5.43234E-04
 -1        49 4.77406E-05-1.79569E-03 9.49356E-04
 -1        50-5.67921E-05-2.56236E-03 7.85396E-04
 -1        51 6.01849E-05-3.46550E-03 4.48525E-04
 -1        74 3.18939E-04-4.41243E-03-4.94593E-04
 -1        75 1.91087E-04-2.97239E-03-7.84761E-04
 -1        76-1.10346E-04-1.59752E-03-9.49880E-04
 -1        77-2.07903E-04-5.26664E-04-5.58178E-04
 -1        89-3.18944E-04-4.41244E-03-4.94590E-04
 -1        90-1.91090E-04-2.97238E-03-7.84759E-04
 -1        91 1.10344E-04-1.59752E-03-9.49879E-04
 -1        92 2.07902E-04-5.26664E-04-5.58178E-04
 -1        98 0.00000E+00 0.00000E+00 0.00000E+00
 -1        99 0.00000E+00 0.00000E+00 0.00000E+00
 -1       100 0.00000E+00 0.00000E+00 0.00000E+00
 -1       101 0.00000E+00 0.00000E+00 0.00000E+00
 -1       102 0.00000E+00 0.00000E+00 0.00000E+00
 -1       124 1.49712E-04-2.96633E-03 4.29748E-04
 -1       125-2.09000E-09-3.58954E-03 4.48541E-04
 -1       126-1.49717E-04-2.96633E-03 4.29747E-04
 -1       127-1.61417E-09-2.56258E-03 9.03705E-04
 -1       128-9.15970E-06-1.95283E-03 9.48174E-04
 -1       129-4.59471E-10-1.81456E-03 9.41531E-04
 -1       130 9.15837E-06-1.95283E-03 9.48173E-04
 -1       131-1.42622E-10-7.36455E-04 5.56388E-04
 -1       153 7.00078E-05-3.63596E-03 1.91311E-04
 -1       154-1.20333E-04-2.50296E-03-2.09473E-05
 -1       155-6.50874E-05-3.88893E-03-2.37876E-04
 -1       156-1.20304E-04-2.78949E-03-6.46138E-05
 -1       157-2.05747E-05-1.50898E-03 3.92379E-04
 -1       158 8.84938E-05-1.56696E-03-2.93872E-05
 -1       159 4.67930E-05-1.47557E-03-4.11070E-04
 -1       160 3.98223E-05-6.56523E-04 4.90948E-06
 -1       182 1.14929E-04-2.56269E-03-4.71121E-04
 -1       183-2.22216E-09-4.35560E-03-4.76671E-04
 -1       184-1.14934E-04-2.56269E-03-4.71120E-04
 -1       185-1.56570E-09-2.83336E-03-8.74068E-04
 -1       186-4.41223E-05-2.16236E-03-9.82693E-04
 -1       187-5.04003E-10-1.83175E-03-9.63756E-04
 -1       188 4.41209E-05-2.16236E-03-9.82692E-04
 -1       189-1.36818E-10-7.19925E-04-5.64513E-04
 -1       211 6.50815E-05-3.88893E-03-2.37873E-04
 -1       212 1.20329E-04-2.50296E-03-2.09453E-05
 -1       213-7.00133E-05-3.63596E-03 1.91314E-04
 -1       214 1.20302E-04-2.78949E-03-6.46120E-05
 -1       215-4.67943E-05-1.47557E-03-4.11069E-04
 -1       216-8.84954E-05-1.56696E-03-2.93859E-05
 -1       217 2.05733E-05-1.50898E-03 3.92380E-04
 -1       218-3.98230E-05-6.56523E-04 4.91019E-06
 -1       250-2.44657E-09-4.08198E-03 1.74301E-04
 -1       251 3.03137E-05-2.57232E-03-1.04377E-05
 -1       252-2.97660E-09-3.12382E-03-1.58825E-05
 -1       253-3.03191E-05-2.57232E-03-1.04391E-05
 -1       254-2.63580E-09-4.41333E-03-2.54374E-04
 -1       255-1.43374E-09-2.59925E-03-3.20301E-05
 -1       256-6.75351E-10-1.60749E-03 3.95687E-04
 -1       257-4.11489E-05-1.74936E-03-1.20138E-05
 -1       258-8.07179E-10-1.79044E-03-1.45583E-05
 -1       259 4.11474E-05-1.74936E-03-1.20143E-05
 -1       260-6.72856E-10-1.62255E-03-4.18279E-04
 -1       261-1.44325E-10-7.17077E-04-1.98633E-06
 -3
    1PSTEP                         2           2           1          
  100CL  102 1.00000E-02          81                     1    2           1
 -4  DISP        4    1
 -5  D1          1    2    1    0
 -5  D2          1    2    2    0
 -5  D3          1    2    3    0
 -5  ALL         1    2    0    0    1ALL
 -1         5 0.00000E+00 0.00000E+00 0.00000E+00
 -1         6 0.00000E+00 0.00000E+00 0.00000E+00
 -1         7 0.00000E+00 0.00000E+00 0.00000E+00
 -1         8 0.00000E+00 0.00000E+00 0.00000E+00
 -1        21 0.00000E+00 0.00000E+00 0.00000E+00
 -1        22 0.00000E+00 0.00000E+00 0.00000E+00
 -1        23 0.00000E+00 0.00000E+00 0.00000E+00
 -1        24 0.00000E+00 0.00000E+00 0.00000E+00
 -1        25 0.00000E+00 0.00000E+00 0.00000E+00
 -1        26 0.00000E+00 0.00000E+00 0.00000E+00
 -1        27 0.00000E+00 0.00000E+00 0.00000E+00
 -1        28 0.00000E+00 0.00000E+00 0.00000E+00
 -1        29 0.00000E+00 0.00000E+00 0.00000E+00
 -1        30 0.00000E+00 0.00000E+00 0.00000E+00
 -1        31 0.00000E+00 0.00000E+00 0.00000E+00
 -1        32 0.00000E+00 0.00000E+00 0.00000E+00
 -1        44-1.36795E-04 1.62078E-03-2.33700E-04
 -1        45-2.82730E-05 1.25523E-03-3.77246E-04
 -1        46 3.86036E-05 9.11114E-04-4.32407E-04
 -1        47-5.59059E-05 3.67721E-04-2.83679E-04
 -1        48 5.59060E-05 3.67720E-04-2.83680E-04
 -1        49-3.86090E-05 9.11114E-04-4.32403E-04
 -1        50 2.82839E-05 1.25521E-03-3.77253E-04
 -1        51 1.36823E-04 1.62079E-03-2.33737E-04
 -1        74 1.52881E-04 1.60408E-03 2.33913E-04
 -1        75 3.75760E-05 1.24592E-03 3.77406E-04
 -1        76-4.13166E-05 9.14097E-04 4.32554E-04
 -1        77 5.34689E-05 3.70198E-04 2.83751E-04
 -1        89-1.52881E-04 1.60404E-03 2.33882E-04
 -1        90-3.75820E-05 1.24593E-03 3.77411E-04
 -1        91 4.13058E-05 9.14080E-04 4.32551E-04
 -1        92-5.34752E-05 3.70196E-04 2.83751E-04
 -1        98 0.00000E+00 0.00000E+00 0.00000E+00
 -1        99 0.00000E+00 0.00000E+00 0.00000E+00
 -1       100 0.00000E+00 0.00000E+00 0.00000E+00
 -1       101 0.00000E+00 0.00000E+00 0.00000E+00
 -1       102 0.00000E+00 0.00000E+00 0.00000E+00
 -1       124-7.13667E-06 1.47518E-03-2.20212E-04
 -1       125 2.31940E-08 1.76936E-03-2.31088E-04
 -1       126 7.16833E-06 1.47517E-03-2.20197E-04
 -1       127 5.97254E-10 1.29928E-03-4.15491E-04
 -1       128-9.56221E-07 9.59817E-04-4.63328E-04
 -1       129 3.24027E-09 8.89051E-04-4.71348E-04
 -1       130 9.57988E-07 9.59819E-04-4.63329E-04
 -1       131-1.20593E-09 3.75798E-04-2.76036E-04
 -1       153 1.18284E-04 1.92564E-03-1.03623E-04
 -1       154 2.80024E-06 1.68864E-03 1.73342E-07
 -1       155-1.23857E-04 1.90242E-03 1.03961E-04
 -1       156-3.29044E-07 1.40620E-03-8.49558E-07
 -1       157-2.34848E-05 7.89817E-04-1.86061E-04
 -1       158-8.89163E-07 8.08759E-04-2.82329E-07
 -1       159 2.44818E-05 7.94712E-04 1.86298E-04
 -1       160 1.08270E-07 3.08303E-04 8.34101E-10
 -1       182 1.56378E-05 1.48103E-03 2.20364E-04
 -1       183-4.47311E-09 1.76345E-03 2.31198E-04
 -1       184-1.56459E-05 1.48100E-03 2.20337E-04
 -1       185-6.22831E-09 1.29979E-03 4.17688E-04
 -1       186-5.65838E-06 9.59169E-04 4.63348E-04
 -1       187-3.87357E-09 8.91919E-04 4.72184E-04
 -1       188 5.65011E-06 9.59162E-04 4.63349E-04
 -1       189-3.06014E-09 3.75866E-04 2.76096E-04
 -1       211 1.23882E-04 1.90241E-03 1.03937E-04
 -1       212-2.73793E-06 1.68865E-03 1.46598E-07
 -1       213-1.18239E-04 1.92564E-03-1.03650E-04
 -1       214 3.02923E-07 1.40619E-03-8.60406E-07
 -1       215-2.44794E-05 7.94703E-04 1.86297E-04
 -1       216 9.02778E-07 8.08760E-04-2.79387E-07
 -1       217 2.34888E-05 7.89819E-04-1.86059E-04
 -1       218-1.12343E-07 3.08300E-04 9.88079E-09
 -1       250 1.32868E-09 1.90227E-03-1.03163E-04
 -1       251 8.70860E-06 1.20841E-03 3.25026E-07
 -1       252-2.47716E-08 1.54382E-03 6.87734E-08
 -1       253-8.70227E-06 1.20840E-03 2.92797E-07
 -1       254-1.36394E-08 1.91962E-03 1.03073E-04
 -1       255 7.20292E-09 1.37438E-03 1.14192E-07
 -1       256-5.17419E-09 7.85046E-04-2.06932E-04
 -1       257-1.75957E-06 9.13364E-04 9.03674E-08
 -1       258-1.27062E-08 8.12442E-04 8.81745E-08
 -1       259 1.75282E-06 9.13364E-04 9.93643E-08
 -1       260-8.63378E-09 7.81968E-04 2.07021E-04
 -1       261 1.03867E-09 3.48228E-04-1.89209E-08
 -3
    1PSTEP                         3           3           1          
  100CL  103 1.50000E-02          81                     1    3           1
 -4  DISP        4    1
 -5  D1          1    2    1    0
 -5  D2          1    2    2    0
 -5  D3          1    2    3    0
 -5  ALL         1    2    0    0    1ALL
 -1         5 0.00000E+00 0.00000E+00 0.00000E+00
 -1         6 0.00000E+00 0.00000E+00 0.00000E+00
 -1         7 0.00000E+00 0.00000E+00 0.00000E+00
 -1         8 0.00000E+00 0.00000E+00 0.00000E+00
 -1        21 0.00000E+00 0.00000E+00 0.00000E+00
 -1        22 0.00000E+00 0.00000E+00 0.00000E+00
 -1        23 0.00000E+00 0.00000E+00 0.00000E+00
 -1        24 0.00000E+00 0.00000E+00 0.00000E+00
 -1        25 0.00000E+00 0.00000E+00 0.00000E+00
 -1        26 0.00000E+00 0.00000E+00 0.00000E+00
 -1        27 0.00000E+00 0.00000E+00 0.00000E+00
 -1        28 0.00000E+00 0.00000E+00 0.00000E+00
 -1        29 0.00000E+00 0.00000E+00 0.00000E+00
 -1        30 0.00000E+00 0.00000E+00 0.00000E+00
 -1        31 0.00000E+00 0.00000E+00 0.00000E+00
 -1        32 0.00000E+00 0.00000E+00 0.00000E+00
 -1        44 1.16644E-04-1.27976E-03 1.85477E-04
 -1        45 2.57211E-05-9.93009E-04 2.98889E-04
 -1        46-3.17450E-05-7.22246E-04 3.42336E-04
 -1        47 4.34455E-05-2.92247E-04 2.25064E-04
 -1        48-4.34491E-05-2.92244E-04 2.25071E-04
 -1        49 3.17296E-05-7.22242E-04 3.42359E-04
 -1        50-2.57217E-05-9.93032E-04 2.98894E-04
 -1        51-1.16684E-04-1.27976E-03 1.85472E-04
 -1        74-1.21212E-04-1.27622E-03-1.85514E-04
 -1        75-2.81341E-05-9.90739E-04-2.98914E-04
 -1        76 3.28031E-05-7.23294E-04-3.42350E-04
 -1        77-4.27484E-05-2.92858E-04-2.25070E-04
 -1        89 1.21212E-04-1.27619E-03-1.85530E-04
 -1        90 2.81283E-05-9.90727E-04-2.98916E-04
 -1        91-3.28184E-05-7.23292E-04-3.42328E-04
 -1        92 4.27454E-05-2.92861E-04-2.25065E-04
 -1        98 0.00000E+00 0.00000E+00 0.00000E+00
 -1        99 0.00000E+00 0.00000E+00 0.00000E+00
 -1       100 0.00000E+00 0.00000E+00 0.00000E+00
 -1       101 0.00000E+00 0.00000E+00 0.00000E+00
 -1       102 0.00000E+00 0.00000E+00 0.00000E+00
 -1       124-2.98891E-06-1.17076E-03 1.74787E-04
 -1       125 1.52621E-09-1.40362E-03 1.83406E-04
 -1       126 2.96510E-06-1.17078E-03 1.74794E-04
 -1       127-1.10612E-08-1.03127E-03 3.30259E-04
 -1       128 2.35838E-06-7.60311E-04 3.67324E-04
 -1       129 2.80628E-09-7.04754E-04 3.74169E-04
 -1       130-2.36167E-06-7.60309E-04 3.67311E-04
 -1       131-1.99687E-09-2.97499E-04 2.18752E-04
 -1       153-9.84175E-05-1.52026E-03 8.23675E-05
 -1       154-1.03143E-06-1.34445E-03-2.82604E-08
 -1       155 1.00052E-04-1.51752E-03-8.24155E-05
 -1       156-8.44486E-08-1.11525E-03 2.55975E-07
 -1       157 1.97851E-05-6.27730E-04 1.47429E-04
 -1       158 2.13347E-07-6.41273E-04 7.68619E-08
 -1       159-2.01553E-05-6.28450E-04-1.47486E-04
 -1       160 2.00249E-08-2.43930E-04 5.71557E-09
 -1       182-6.30877E-06-1.17200E-03-1.74824E-04
 -1       183 1.51395E-08-1.40265E-03-1.83330E-04
 -1       184 6.31608E-06-1.17200E-03-1.74815E-04
 -1       185-8.71368E-09-1.03175E-03-3.30755E-04
 -1       186 3.11174E-06-7.60096E-04-3.67308E-04
 -1       187 7.37907E-10-7.04784E-04-3.74393E-04
 -1       188-3.11681E-06-7.60091E-04-3.67300E-04
 -1       189-2.26702E-09-2.97393E-04-2.18768E-04
 -1       211-1.00077E-04-1.51749E-03-8.24002E-05
 -1       212 1.00123E-06-1.34446E-03-4.54322E-08
 -1       213 9.83657E-05-1.52028E-03 8.24207E-05
 -1       214 5.98015E-08-1.11524E-03 2.57162E-07
 -1       215 2.01485E-05-6.28456E-04-1.47480E-04
 -1       216-2.15057E-07-6.41280E-04 8.48702E-08
 -1       217-1.97909E-05-6.27728E-04 1.47429E-04
 -1       218-2.33009E-08-2.43930E-04 1.47704E-08
 -1       250-1.89731E-08-1.51491E-03 8.18271E-05
 -1       251-7.98328E-07-9.58008E-04-6.92715E-08
 -1       252-4.48823E-08-1.22345E-03-2.40111E-09
 -1       253 7.44396E-07-9.58001E-04-5.44464E-08
 -1       254-1.23562E-08-1.51680E-03-8.17549E-05
 -1       255-8.71344E-09-1.08990E-03-1.93779E-08
 -1       256-3.74788E-09-6.20601E-04 1.64255E-04
 -1       257 1.66906E-07-7.24459E-04-2.59931E-09
 -1       258-8.30460E-09-6.43512E-04-7.83251E-10
 -1       259-1.77587E-07-7.24456E-04-7.81838E-09
 -1       260-4.71417E-09-6.20099E-04-1.64246E-04
 -1       261 1.26746E-09-2.76057E-04-9.92378E-09
 -3
    1PSTEP                         4           4           1          
  100CL  104 2.00000E-02          81                     1    4           1
 -4  DISP        4    1
 -5  D1          1    2    1    0
 -5  D2          1    2    2    0
 -5  D3          1    2    3    0
 -5  ALL         1    2    0    0    1ALL
 -1         5 0.00000E+00 0.00000E+00 0.00000E+00
 -1         6 0.00000E+00 0.00000E+00 0.00000E+00
 -1         7 0.00000E+00 0.00000E+00 0.00000E+00
 -1         8 0.00000E+00 0.00000E+00 0.00000E+00
 -1        21 0.00000E+00 0.00000E+00 0.00000E+00
 -1        22 0.00000E+00 0.00000E+00 0.00000E+00
 -1        23 0.00000E+00 0.00000E+00 0.00000E+00
 -1        24 0.00000E+00 0.00000E+00 0.00000E+00
 -1        25 0.00000E+00 0.00000E+00 0.00000E+00
 -1        26 0.00000E+00 0.00000E+00 0.00000E+00
 -1        27 0.00000E+00 0.00000E+00 0.00000E+00
 -1        28 0.00000E+00 0.00000E+00 0.00000E+00
 -1        29 0.00000E+00 0.00000E+00 0.00000E+00
 -1        30 0.00000E+00 0.00000E+00 0.00000E+00
 -1        31 0.00000E+00 0.00000E+00 0.00000E+00
 -1        32 0.00000E+00 0.00000E+00 0.00000E+00
 -1        44-9.00352E-05 9.92680E-04-1.43910E-04
 -1        45-1.98244E-05 7.70161E-04-2.31932E-04
 -1        46 2.46827E-05 5.60976E-04-2.65707E-04
 -1        47-3.37133E-05 2.26910E-04-1.74653E-04
 -1        48 3.37124E-05 2.26909E-04-1.74644E-04
 -1        49-2.46840E-05 5.60973E-04-2.65693E-04
 -1        50 1.97921E-05 7.70168E-04-2.31931E-04
 -1        51 8.99653E-05 9.92724E-04-1.43892E-04
 -1        74 9.40762E-05 9.88399E-04 1.43910E-04
 -1        75 2.21625E-05 7.67773E-04 2.31957E-04
 -1        76-2.56096E-05 5.61908E-04 2.65701E-04
 -1        77 3.30596E-05 2.27582E-04 1.74642E-04
 -1        89-9.41340E-05 9.88352E-04 1.43917E-04
 -1        90-2.21906E-05 7.67766E-04 2.31957E-04
 -1        91 2.56102E-05 5.61914E-04 2.65710E-04
 -1        92-3.30600E-05 2.27585E-04 1.74649E-04
 -1        98 0.00000E+00 0.00000E+00 0.00000E+00
 -1        99 0.00000E+00 0.00000E+00 0.00000E+00
 -1       100 0.00000E+00 0.00000E+00 0.00000E+00
 -1       101 0.00000E+00 0.00000E+00 0.00000E+00
 -1       102 0.00000E+00 0.00000E+00 0.00000E+00
 -1       124 1.05063E-06 9.08590E-04-1.35577E-04
 -1       125-3.73209E-08 1.08846E-03-1.42274E-04
 -1       126-1.11359E-06 9.08585E-04-1.35595E-04
 -1       127-7.15067E-09 8.00127E-04-2.56120E-04
 -1       128-1.64014E-06 5.90039E-04-2.84999E-04
 -1       129-7.93341E-09 5.46849E-04-2.90262E-04
 -1       130 1.62940E-06 5.90037E-04-2.85003E-04
 -1       131 4.57992E-10 2.30966E-04-1.69764E-04
 -1       153 7.58599E-05 1.18060E-03-6.39104E-05
 -1       154 6.86188E-07 1.04237E-03 4.22295E-08
 -1       155-7.72721E-05 1.17638E-03 6.39062E-05
 -1       156-1.17045E-07 8.65182E-04-2.55035E-07
 -1       157-1.51805E-05 4.87079E-04-1.14401E-04
 -1       158-1.32327E-07 4.97782E-04-1.01922E-07
 -1       159 1.54663E-05 4.88000E-04 1.14425E-04
 -1       160 3.39620E-08 1.89438E-04-3.21621E-09
 -1       182 5.21606E-06 9.10131E-04 1.35576E-04
 -1       183-3.11780E-08 1.08682E-03 1.42279E-04
 -1       184-5.26751E-06 9.10125E-04 1.35576E-04
 -1       185-8.02141E-09 8.00171E-04 2.56651E-04
 -1       186-2.56310E-06 5.89715E-04 2.84971E-04
 -1       187-6.36914E-09 5.47230E-04 2.90438E-04
 -1       188 2.55489E-06 5.89715E-04 2.84975E-04
 -1       189 8.43890E-10 2.30942E-04 1.69768E-04
 -1       211 7.72438E-05 1.17634E-03 6.39184E-05
 -1       212-7.11917E-07 1.04236E-03 1.88995E-08
 -1       213-7.58961E-05 1.18064E-03-6.38770E-05
 -1       214 1.04138E-07 8.65186E-04-2.45379E-07
 -1       215-1.54751E-05 4.88005E-04 1.14430E-04
 -1       216 1.20198E-07 4.97782E-04-9.04695E-08
 -1       217 1.51711E-05 4.87074E-04-1.14396E-04
 -1       218-3.62390E-08 1.89438E-04-2.84918E-11
 -1       250-1.75306E-08 1.17363E-03-6.35042E-05
 -1       251 1.39031E-06 7.43331E-04 4.82552E-08
 -1       252 8.15821E-09 9.49205E-04 1.72559E-08
 -1       253-1.39933E-06 7.43333E-04 6.65142E-08
 -1       254-1.38648E-08 1.17638E-03 6.34304E-05
 -1       255-1.00589E-08 8.45758E-04-7.83463E-09
 -1       256-3.54258E-09 4.81916E-04-1.27439E-04
 -1       257-3.21853E-07 5.62140E-04 1.02811E-08
 -1       258-3.19349E-10 4.99368E-04 6.31702E-10
 -1       259 3.17051E-07 5.62139E-04 2.89355E-09
 -1       260-2.99626E-09 4.81319E-04 1.27432E-04
 -1       261-2.45965E-09 2.14220E-04-2.09663E-09
 -3
    1PSTEP                         5           5           1          
  100CL  105 2.50000E-02          81                     1    5           1
 -4  DISP        4    1
 -5  D1          1    2    1    0
 -5  D2          1    2    2    0
 -5  D3          1    2    3    0
 -5  ALL         1    2    0    0    1ALL
 -1         5 0.00000E+00 0.00000E+00 0.00000E+00
 -1         6 0.00000E+00 0.00000E+00 0.00000E+00
 -1         7 0.00000E+00 0.00000E+00 0.00000E+00
 -1         8 0.00000E+00 0.00000E+00 0.00000E+00
 -1        21 0.00000E+00 0.00000E+00 0.00000E+00
 -1        22 0.00000E+00 0.00000E+00 0.00000E+00
 -1        23 0.00000E+00 0.00000E+00 0.00000E+00
 -1        24 0.00000E+00 0.00000E+00 0.00000E+00
 -1        25 0.00000E+00 0.00000E+00 0.00000E+00
 -1        26 0.00000E+00 0.00000E+00 0.00000E+00
 -1        27 0.00000E+00 0.00000E+00 0.00000E+00
 -1        28 0.00000E+00 0.00000E+00 0.00000E+00
 -1        29 0.00000E+00 0.00000E+00 0.00000E+00
 -1        30 0.00000E+00 0.00000E+00 0.00000E+00
 -1        31 0.00000E+00 0.00000E+00 0.00000E+00
 -1        32 0.00000E+00 0.00000E+00 0.00000E+00
 -1        44 6.65930E-05-7.51439E-04 1.08747E-04
 -1        45 1.43123E-05-5.82488E-04 1.75340E-04
 -1        46-1.83109E-05-4.23302E-04 2.00771E-04
 -1        47 2.56536E-05-1.71114E-04 1.31893E-04
 -1        48-2.56537E-05-1.71113E-04 1.31901E-04
 -1        49 1.83187E-05-4.23295E-04 2.00779E-04
 -1        50-1.43330E-05-5.82480E-04 1.75328E-04
 -1        51-6.66697E-05-7.51336E-04 1.08745E-04
 -1        74-7.12974E-05-7.46767E-04-1.08741E-04
 -1        75-1.69421E-05-5.79855E-04-1.75333E-04
 -1        76 1.92985E-05-4.24298E-04-2.00792E-04
 -1        77-2.49193E-05-1.71843E-04-1.31900E-04
 -1        89 7.12670E-05-7.46827E-04-1.08763E-04
 -1        90 1.69430E-05-5.79860E-04-1.75364E-04
 -1        91-1.92825E-05-4.24281E-04-2.00781E-04
 -1        92 2.49261E-05-1.71841E-04-1.31896E-04
 -1        98 0.00000E+00 0.00000E+00 0.00000E+00
 -1        99 0.00000E+00 0.00000E+00 0.00000E+00
 -1       100 0.00000E+00 0.00000E+00 0.00000E+00
 -1       101 0.00000E+00 0.00000E+00 0.00000E+00
 -1       102 0.00000E+00 0.00000E+00 0.00000E+00
 -1       124-9.32668E-08-6.85861E-04 1.02463E-04
 -1       125-3.94841E-08-8.22476E-04 1.07457E-04
 -1       126 3.02968E-08-6.85888E-04 1.02464E-04
 -1       127-7.73364E-10-6.04238E-04 1.93364E-04
 -1       128 1.05921E-06-4.45749E-04 2.15335E-04
 -1       129-5.92890E-09-4.13019E-04 2.19259E-04
 -1       130-1.06489E-06-4.45758E-04 2.15332E-04
 -1       131 1.09128E-09-1.74421E-04 1.28238E-04
 -1       153-5.67546E-05-8.92759E-04 4.82775E-05
 -1       154-7.99885E-07-7.87227E-04 1.42099E-08
 -1       155 5.83747E-05-8.87884E-04-4.83200E-05
 -1       156 7.68053E-08-6.53474E-04 3.01643E-07
 -1       157 1.13700E-05-3.67599E-04 8.64479E-05
 -1       158 1.87085E-07-3.75902E-04 9.90172E-08
 -1       159-1.17105E-05-3.68653E-04-8.64783E-05
 -1       160-2.83603E-08-1.43043E-04-2.04560E-09
 -1       182-4.95267E-06-6.87503E-04-1.02459E-04
 -1       183-2.80218E-09-8.20869E-04-1.07403E-04
 -1       184 4.94575E-06-6.87512E-04-1.02468E-04
 -1       185 5.19536E-09-6.04400E-04-1.93950E-04
 -1       186 2.11828E-06-4.45419E-04-2.15308E-04
 -1       187 3.02163E-09-4.13379E-04-2.19472E-04
 -1       188-2.11044E-06-4.45415E-04-2.15304E-04
 -1       189 3.36006E-09-1.74361E-04-1.28239E-04
 -1       211-5.83617E-05-8.87939E-04-4.83104E-05
 -1       212 8.12410E-07-7.87248E-04-5.49380E-08
 -1       213 5.67337E-05-8.92702E-04 4.83103E-05
 -1       214-6.39705E-08-6.53456E-04 2.95661E-07
 -1       215 1.17127E-05-3.68644E-04-8.64852E-05
 -1       216-1.89489E-07-3.75905E-04 1.03483E-07
 -1       217-1.13699E-05-3.67600E-04 8.64388E-05
 -1       218 3.01542E-08-1.43039E-04-2.33641E-09
 -1       250-6.31662E-09-8.86322E-04 4.80231E-05
 -1       251-1.65964E-06-5.61491E-04-9.01089E-08
 -1       252 3.49021E-08-7.16926E-04-2.95155E-09
 -1       253 1.69451E-06-5.61476E-04-4.11020E-08
 -1       254 1.40244E-08-8.89675E-04-4.78973E-05
 -1       255-1.67624E-10-6.38826E-04-4.40317E-10
 -1       256 1.14410E-09-3.64014E-04 9.62620E-05
 -1       257 3.67846E-07-4.24515E-04-9.28904E-10
 -1       258 6.77145E-09-3.77128E-04-6.04490E-11
 -1       259-3.60261E-07-4.24514E-04-6.78712E-09
 -1       260 5.27051E-09-3.63279E-04-9.62573E-05
 -1       261-1.28120E-09-1.61761E-04-1.60654E-09
 -3
    1PSTEP                         6           6           1          
  100CL  106 3.00000E-02          81                     1    6           1
 -4  DISP        4    1
 -5  D1          1    2    1    0
 -5  D2          1    2    2    0
 -5  D3          1    2    3    0
 -5  ALL         1    2    0    0    1ALL
 -1         5 0.00000E+00 0.00000E+00 0.00000E+00
 -1         6 0.00000E+00 0.00000E+00 0.00000E+00
 -1         7 0.00000E+00 0.00000E+00 0.00000E+00
 -1         8 0.00000E+00 0.00000E+00 0.00000E+00
 -1        21 0.00000E+00 0.00000E+00 0.00000E+00
 -1        22 0.00000E+00 0.00000E+00 0.00000E+00
 -1        23 0.00000E+00 0.00000E+00 0.00000E+00
 -1        24 0.00000E+00 0.00000E+00 0.00000E+00
 -1        25 0.00000E+00 0.00000E+00 0.00000E+00
 -1        26 0.00000E+00 0.00000E+00 0.00000E+00
 -1        27 0.00000E+00 0.00000E+00 0.00000E+00
 -1        28 0.00000E+00 0.00000E+00 0.00000E+00
 -1        29 0.00000E+00 0.00000E+00 0.00000E+00
 -1        30 0.00000E+00 0.00000E+00 0.00000E+00
 -1        31 0.00000E+00 0.00000E+00 0.00000E+00
 -1        32 0.00000E+00 0.00000E+00 0.00000E+00
 -1        44-4.97684E-05 5.43233E-04-7.87117E-05
 -1        45-1.10105E-05 4.21583E-04-1.27029E-04
 -1        46 1.35946E-05 3.06958E-04-1.45361E-04
 -1        47-1.83859E-05 1.24250E-04-9.56024E-05