    1C
    1UUSER                                                              
    1UDATE              15.july.2018                                    
    1UTIME              20:21:53                                        
    1UHOST                                                              
    1UPGM               CalculiX                                        
    1UVERSION           Version 2.13                             
    1UCOMPILETIME       jue jun 14 00:40:39 CEST 2018                    
    1UDIR                                                               
    1UDBN                                                               
    1UMAT    1EL                                                        
    2C                            81                                     1
 -1         5 0.00000E+00 0.00000E+00 8.00000E+00
 -1         6 1.00000E+00 0.00000E+00 8.00000E+00
 -1         7 1.00000E+00 1.00000E+00 8.00000E+00
 -1         8 0.00000E+00 1.00000E+00 8.00000E+00
 -1        21 2.50000E-01 0.00000E+00 8.00000E+00
 -1        22 5.00000E-01 0.00000E+00 8.00000E+00
 -1        23 7.50000E-01 0.00000E+00 8.00000E+00
 -1        24 1.00000E+00 2.50000E-01 8.00000E+00
 -1        25 1.00000E+00 5.00000E-01 8.00000E+00
 -1        26 1.00000E+00 7.50000E-01 8.00000E+00
 -1        27 7.50000E-01 1.00000E+00 8.00000E+00
 -1        28 5.00000E-01 1.00000E+00 8.00000E+00
 -1        29 2.50000E-01 1.00000E+00 8.00000E+00
 -1        30 0.00000E+00 7.50000E-01 8.00000E+00
 -1        31 0.00000E+00 5.00000E-01 8.00000E+00
 -1        32 0.00000E+00 2.50000E-01 8.00000E+00
 -1        44 1.00000E+00 0.00000E+00 6.00000E+00
 -1        45 1.00000E+00 0.00000E+00 6.50000E+00
 -1        46 1.00000E+00 0.00000E+00 7.00000E+00
 -1        47 1.00000E+00 0.00000E+00 7.50000E+00
 -1        48 0.00000E+00 0.00000E+00 7.50000E+00
 -1        49 0.00000E+00 0.00000E+00 7.00000E+00
 -1        50 0.00000E+00 0.00000E+00 6.50000E+00
 -1        51 0.00000E+00 0.00000E+00 6.00000E+00
 -1        74 1.00000E+00 1.00000E+00 6.00000E+00
 -1        75 1.00000E+00 1.00000E+00 6.50000E+00
 -1        76 1.00000E+00 1.00000E+00 7.00000E+00
 -1        77 1.00000E+00 1.00000E+00 7.50000E+00
 -1        89 0.00000E+00 1.00000E+00 6.00000E+00
 -1        90 0.00000E+00 1.00000E+00 6.50000E+00
 -1        91 0.00000E+00 1.00000E+00 7.00000E+00
 -1        92 0.00000E+00 1.00000E+00 7.50000E+00
 -1        98 5.00000E-01 2.50000E-01 8.00000E+00
 -1        99 2.50000E-01 5.00000E-01 8.00000E+00
 -1       100 5.00000E-01 5.00000E-01 8.00000E+00
 -1       101 7.50000E-01 5.00000E-01 8.00000E+00
 -1       102 5.00000E-01 7.50000E-01 8.00000E+00
 -1       124 2.50000E-01 0.00000E+00 6.00000E+00
 -1       125 5.00000E-01 0.00000E+00 6.00000E+00
 -1       126 7.50000E-01 0.00000E+00 6.00000E+00
 -1       127 5.00000E-01 0.00000E+00 6.50000E+00
 -1       128 2.50000E-01 0.00000E+00 7.00000E+00
 -1       129 5.00000E-01 0.00000E+00 7.00000E+00
 -1       130 7.50000E-01 0.00000E+00 7.00000E+00
 -1       131 5.00000E-01 0.00000E+00 7.50000E+00
 -1       153 1.00000E+00 2.50000E-01 6.00000E+00
 -1       154 1.00000E+00 5.00000E-01 6.00000E+00
 -1       155 1.00000E+00 7.50000E-01 6.00000E+00
 -1       156 1.00000E+00 5.00000E-01 6.50000E+00
 -1       157 1.00000E+00 2.50000E-01 7.00000E+00
 -1       158 1.00000E+00 5.00000E-01 7.00000E+00
 -1       159 1.00000E+00 7.50000E-01 7.00000E+00
 -1       160 1.00000E+00 5.00000E-01 7.50000E+00
 -1       182 7.50000E-01 1.00000E+00 6.00000E+00
 -1       183 5.00000E-01 1.00000E+00 6.00000E+00
 -1       184 2.50000E-01 1.00000E+00 6.00000E+00
 -1       185 5.00000E-01 1.00000E+00 6.50000E+00
 -1       186 7.50000E-01 1.00000E+00 7.00000E+00
 -1       187 5.00000E-01 1.00000E+00 7.00000E+00
 -1       188 2.50000E-01 1.00000E+00 7.00000E+00
 -1       189 5.00000E-01 1.00000E+00 7.50000E+00
 -1       211 0.00000E+00 7.50000E-01 6.00000E+00
 -1       212 0.00000E+00 5.00000E-01 6.00000E+00
 -1       213 0.00000E+00 2.50000E-01 6.00000E+00
 -1       214 0.00000E+00 5.00000E-01 6.50000E+00
 -1       215 0.00000E+00 7.50000E-01 7.00000E+00
 -1       216 0.00000E+00 5.00000E-01 7.00000E+00
 -1       217 0.00000E+00 2.50000E-01 7.00000E+00
 -1       218 0.00000E+00 5.00000E-01 7.50000E+00
 -1       250 5.00000E-01 2.50000E-01 6.00000E+00
 -1       251 2.50000E-01 5.00000E-01 6.00000E+00
 -1       252 5.00000E-01 5.00000E-01 6.00000E+00
 -1       253 7.50000E-01 5.00000E-01 6.00000E+00
 -1       254 5.00000E-01 7.50000E-01 6.00000E+00
 -1       255 5.00000E-01 5.00000E-01 6.50000E+00
 -1       256 5.00000E-01 2.50000E-01 7.00000E+00
 -1       257 2.50000E-01 5.00000E-01 7.00000E+00
 -1       258 5.00000E-01 5.00000E-01 7.00000E+00
 -1       259 7.50000E-01 5.00000E-01 7.00000E+00
 -1       260 5.00000E-01 7.50000E-01 7.00000E+00
 -1       261 5.00000E-01 5.00000E-01 7.50000E+00
 -3
    3C                             8                                     1
 -1        25    4    0    1
 -2        51       125       252       212        49       129       258       216       124       250
 -2       251       213        50       127       255       214       128       256       257       217
 -1        26    4    0    1
 -2       125        44       154       252       129        46       158       258       126       153
 -2       253       250       127        45       156       255       130       157       259       256
 -1        27    4    0    1
 -2       212       252       183        89       216       258       187        91       251       254
 -2       184       211       214       255       185        90       257       260       188       215
 -1        28    4    0    1
 -2       252       154        74       183       258       158        76       187       253       155
 -2       182       254       255       156        75       185       259       159       186       260
 -1        29    4    0    1
 -2        49       129       258       216         5        22       100        31       128       256
 -2       257       217        48       131       261       218        21        98        99        32
 -1        30    4    0    1
 -2       129        46       158       258        22         6        25       100       130       157
 -2       259       256       131        47       160       261        23        24       101        98
 -1        31    4    0    1
 -2       216       258       187        91        31       100        28         8       257       260
 -2       188       215       218       261       189        92        99       102        29        30
 -1        32    4    0    1
 -2       258       158        76       187       100        25         7        28       259       159
 -2       186       260       261       160        77       189       101        26        27       102
 -3
    1PSTEP                         1           1           1          
  100CL  101 5.00000E-03          81                     1    1           1
 -4  DISP        4    1
 -5  D1          1    2    1    0
 -5  D2          1    2    2    0
 -5  D3          1    2    3    0
 -5  ALL         1    2    0    0    1ALL
 -1         5 0.00000E+00 0.00000E+00 0.00000E+00
 -1         6 0.00000E+00 0.00000E+00 0.00000E+00
 -1         7 0.00000E+00 0.00000E+00 0.00000E+00
 -1         8 0.00000E+00 0.00000E+00 0.00000E+00
 -1        21 0.00000E+00 0.00000E+00 0.00000E+00
 -1        22 0.00000E+00 0.00000E+00 0.00000E+00
 -1        23 0.00000E+00 0.00000E+00 0.00000E+00
 -1        24 0.00000E+00 0.00000E+00 0.00000E+00
 -1        25 0.00000E+00 0.00000E+00 0.00000E+00
 -1        26 0.00000E+00 0.00000E+00 0.00000E+00
 -1        27 0.00000E+00 0.00000E+00 0.00000E+00
 -1        28 0.00000E+00 0.00000E+00 0.00000E+00
 -1        29 0.00000E+00 0.00000E+00 0.00000E+00
 -1        30 0.00000E+00 0.00000E+00 0.00000E+00
 -1        31 0.00000E+00 0.00000E+00 0.00000E+00
 -1        32 0.00000E+00 0.00000E+00 0.00000E+00
 -1        44-5.94513E-05-3.46553E-03 4.48535E-04
 -1        45 5.70825E-05-2.56236E-03 7.85632E-04
 -1        46-4.77020E-05-1.79600E-03 9.49604E-04
 -1        47 1.31009E-04-6.75073E-04 5.43327E-04
 -1        48-1.30959E-04-6.75047E-04 5.43247E-04
 -1        49 4.78776E-05-1.79599E-03 9.49446E-04
 -1        50-5.67100E-05-2.56234E-03 7.85407E-04
 -1        51 6.00767E-05-3.46553E-03 4.48265E-04
 -1        74 3.18852E-04-4.41168E-03-4.94494E-04
 -1        75 1.91097E-04-2.97210E-03-7.84731E-04
 -1        76-1.10129E-04-1.59799E-03-9.49905E-04
 -1        77-2.07820E-04-5.26823E-04-5.58188E-04
 -1        89-3.18228E-04-4.41168E-03-4.94761E-04
 -1        90-1.90724E-04-2.97213E-03-7.84954E-04
 -1        91 1.10305E-04-1.59800E-03-9.50063E-04
 -1        92 2.07871E-04-5.26850E-04-5.58268E-04
 -1        98 0.00000E+00 0.00000E+00 0.00000E+00
 -1        99 0.00000E+00 0.00000E+00 0.00000E+00
 -1       100 0.00000E+00 0.00000E+00 0.00000E+00
 -1       101 0.00000E+00 0.00000E+00 0.00000E+00
 -1       102 0.00000E+00 0.00000E+00 0.00000E+00
 -1       124 1.49970E-04-2.96656E-03 4.29656E-04
 -1       125 3.05395E-07-3.59012E-03 4.48666E-04
 -1       126-1.49357E-04-2.96656E-03 4.29788E-04
 -1       127 1.81627E-07-2.56288E-03 9.03988E-04
 -1       128-9.09178E-06-1.95302E-03 9.48256E-04
 -1       129 8.32279E-08-1.81460E-03 9.41596E-04
 -1       130 9.26002E-06-1.95303E-03 9.48334E-04
 -1       131 1.83104E-08-7.36478E-04 5.56394E-04
 -1       153 7.03109E-05-3.63675E-03 1.91420E-04
 -1       154-1.19926E-04-2.50318E-03-2.08050E-05
 -1       155-6.47059E-05-3.88939E-03-2.37780E-04
 -1       156-1.20046E-04-2.78972E-03-6.43269E-05
 -1       157-2.04956E-05-1.50901E-03 3.92449E-04
 -1       158 8.84829E-05-1.56706E-03-2.94182E-05
 -1       159 4.68452E-05-1.47566E-03-4.11068E-04
 -1       160 3.98684E-05-6.56555E-04 4.91530E-06
 -1       182 1.15403E-04-2.56299E-03-4.71015E-04
 -1       183 3.04979E-07-4.35535E-03-4.76541E-04
 -1       184-1.14791E-04-2.56299E-03-4.71146E-04
 -1       185 1.81769E-07-2.83349E-03-8.74024E-04
 -1       186-4.40594E-05-2.16249E-03-9.82794E-04
 -1       187 8.31493E-08-1.83196E-03-9.63957E-04
 -1       188 4.42275E-05-2.16250E-03-9.82872E-04
 -1       189 1.83087E-08-7.19962E-04-5.64574E-04
 -1       211 6.53011E-05-3.88940E-03-2.38041E-04
 -1       212 1.20483E-04-2.50318E-03-2.10415E-05
 -1       213-6.97145E-05-3.63675E-03 1.91158E-04
 -1       214 1.20459E-04-2.78972E-03-6.45383E-05
 -1       215-4.66742E-05-1.47567E-03-4.11226E-04
 -1       216-8.83225E-05-1.56706E-03-2.95819E-05
 -1       217 2.06667E-05-1.50901E-03 3.92290E-04
 -1       218-3.98032E-05-6.56555E-04 4.82748E-06
 -1       250 3.29963E-07-4.08250E-03 1.74707E-04
 -1       251 3.05130E-05-2.57221E-03-1.03796E-05
 -1       252 3.48153E-07-3.12414E-03-1.44418E-05
 -1       253-2.98897E-05-2.57221E-03-1.02031E-05
 -1       254 3.29534E-07-4.41312E-03-2.53976E-04
 -1       255 1.74423E-07-2.59959E-03-3.18408E-05
 -1       256 9.41272E-08-1.60750E-03 3.95766E-04
 -1       257-4.10084E-05-1.74951E-03-1.20078E-05
 -1       258 1.02483E-07-1.79045E-03-1.46506E-05
 -1       259 4.11887E-05-1.74951E-03-1.19406E-05
 -1       260 9.41420E-08-1.62271E-03-4.18324E-04
 -1       261 2.09637E-08-7.17075E-04-2.03033E-06
 -3
    1PSTEP                         2           2           1          
  100CL  102 1.00000E-02          81                     1    2           1
 -4  DISP        4    1
 -5  D1          1    2    1    0
 -5  D2          1    2    2    0
 -5  D3          1    2    3    0
 -5  ALL         1    2    0    0    1ALL
 -1         5 0.00000E+00 0.00000E+00 0.00000E+00
 -1         6 0.00000E+00 0.00000E+00 0.00000E+00
 -1         7 0.00000E+00 0.00000E+00 0.00000E+00
 -1         8 0.00000E+00 0.00000E+00 0.00000E+00
 -1        21 0.00000E+00 0.00000E+00 0.00000E+00
 -1        22 0.00000E+00 0.00000E+00 0.00000E+00
 -1        23 0.00000E+00 0.00000E+00 0.00000E+00
 -1        24 0.00000E+00 0.00000E+00 0.00000E+00
 -1        25 0.00000E+00 0.00000E+00 0.00000E+00
 -1        26 0.00000E+00 0.00000E+00 0.00000E+00
 -1        27 0.00000E+00 0.00000E+00 0.00000E+00
 -1        28 0.00000E+00 0.00000E+00 0.00000E+00
 -1        29 0.00000E+00 0.00000E+00 0.00000E+00
 -1        30 0.00000E+00 0.00000E+00 0.00000E+00
 -1        31 0.00000E+00 0.00000E+00 0.00000E+00
 -1        32 0.00000E+00 0.00000E+00 0.00000E+00
 -1        44-1.57291E-04 1.60187E-03-2.33941E-04
 -1        45-3.82349E-05 1.24597E-03-3.77051E-04
 -1        46 4.34446E-05 9.15960E-04-4.32162E-04
 -1        47-5.31144E-05 3.70842E-04-2.84040E-04
 -1        48 5.31113E-05 3.70833E-04-2.84015E-04
 -1        49-4.34484E-05 9.15933E-04-4.32120E-04
 -1        50 3.81406E-05 1.24599E-03-3.77024E-04
 -1        51 1.57112E-04 1.60189E-03-2.33842E-04
 -1        74 1.46661E-04 1.61329E-03 2.34212E-04
 -1        75 3.19795E-05 1.25231E-03 3.77203E-04
 -1        76-3.94096E-05 9.12114E-04 4.32209E-04
 -1        77 5.49853E-05 3.68868E-04 2.84069E-04
 -1        89-1.46750E-04 1.61306E-03 2.34079E-04
 -1        90-3.21149E-05 1.25231E-03 3.77173E-04
 -1        91 3.94201E-05 9.12100E-04 4.32261E-04
 -1        92-5.49980E-05 3.68875E-04 2.84107E-04
 -1        98 0.00000E+00 0.00000E+00 0.00000E+00
 -1        99 0.00000E+00 0.00000E+00 0.00000E+00
 -1       100 0.00000E+00 0.00000E+00 0.00000E+00
 -1       101 0.00000E+00 0.00000E+00 0.00000E+00
 -1       102 0.00000E+00 0.00000E+00 0.00000E+00
 -1       124 4.62851E-06 1.48213E-03-2.20407E-04
 -1       125-1.01787E-07 1.76539E-03-2.31252E-04
 -1       126-4.79674E-06 1.48216E-03-2.20487E-04
 -1       127-1.89729E-08 1.30113E-03-4.18030E-04
 -1       128-3.66123E-06 9.58485E-04-4.63468E-04
 -1       129-2.36182E-08 8.89759E-04-4.72566E-04
 -1       130 3.63066E-06 9.58489E-04-4.63483E-04
 -1       131 1.79143E-09 3.75610E-04-2.76034E-04
 -1       153 1.27290E-04 1.91708E-03-1.03893E-04
 -1       154-1.94255E-06 1.69726E-03 1.10030E-07
 -1       155-1.23790E-04 1.91678E-03 1.04061E-04
 -1       156 3.44704E-07 1.40794E-03 7.95556E-07
 -1       157-2.55961E-05 7.93038E-04-1.86075E-04
 -1       158-2.93617E-07 8.08964E-04 2.90466E-07
 -1       159 2.45965E-05 7.92660E-04 1.86094E-04
 -1       160-8.06357E-08 3.07722E-04 1.80657E-08
 -1       182 5.37130E-06 1.47813E-03 2.20668E-04
 -1       183-1.19845E-07 1.77039E-03 2.31446E-04
 -1       184-5.52201E-06 1.47805E-03 2.20658E-04
 -1       185-3.00527E-08 1.30116E-03 4.16810E-04
 -1       186-3.15389E-06 9.59993E-04 4.63698E-04
 -1       187-3.22529E-08 8.90722E-04 4.72264E-04
 -1       188 3.12230E-06 9.59979E-04 4.63708E-04
 -1       189 1.13034E-10 3.75804E-04 2.76027E-04
 -1       211 1.23705E-04 1.91663E-03 1.04118E-04
 -1       212 1.79796E-06 1.69724E-03 8.85096E-08
 -1       213-1.27424E-04 1.91711E-03-1.03801E-04
 -1       214-3.88583E-07 1.40792E-03 8.34961E-07
 -1       215-2.46260E-05 7.92660E-04 1.86106E-04
 -1       216 2.39818E-07 8.08966E-04 3.27168E-07
 -1       217 2.55616E-05 7.93020E-04-1.86048E-04
 -1       218 7.23108E-08 3.07718E-04 3.06866E-08
 -1       250-5.92931E-08 1.90896E-03-1.02892E-04
 -1       251 2.00160E-06 1.20786E-03-8.36422E-08
 -1       252 4.13381E-09 1.54529E-03 2.84285E-08
 -1       253-2.07641E-06 1.20787E-03-3.17661E-08
 -1       254-6.09713E-08 1.91350E-03 1.03491E-04
 -1       255-3.95712E-08 1.37610E-03 1.25121E-07
 -1       256-1.19074E-08 7.83310E-04-2.07269E-04
 -1       257-1.22220E-07 9.14425E-04 7.26901E-08
 -1       258-4.17261E-09 8.11721E-04 7.97224E-08
 -1       259 9.47592E-08 9.14422E-04 4.44288E-08
 -1       260-1.84280E-08 7.83276E-04 2.07391E-04
 -1       261-8.08646E-09 3.48145E-04-7.61141E-09
 -3
    1PSTEP                         3           3           1          
  100CL  103 1.50000E-02          81                     1    3           1
 -4  DISP        4    1
 -5  D1          1    2    1    0
 -5  D2          1    2    2    0
 -5  D3          1    2    3    0
 -5  ALL         1    2    0    0    1ALL
 -1         5 0.00000E+00 0.00000E+00 0.00000E+00
 -1         6 0.00000E+00 0.00000E+00 0.00000E+00
 -1         7 0.00000E+00 0.00000E+00 0.00000E+00
 -1         8 0.00000E+00 0.00000E+00 0.00000E+00
 -1        21 0.00000E+00 0.00000E+00 0.00000E+00
 -1        22 0.00000E+00 0.00000E+00 0.00000E+00
 -1        23 0.00000E+00 0.00000E+00 0.00000E+00
 -1        24 0.00000E+00 0.00000E+00 0.00000E+00
 -1        25 0.00000E+00 0.00000E+00 0.00000E+00
 -1        26 0.00000E+00 0.00000E+00 0.00000E+00
 -1        27 0.00000E+00 0.00000E+00 0.00000E+00
 -1        28 0.00000E+00 0.00000E+00 0.00000E+00
 -1        29 0.00000E+00 0.00000E+00 0.00000E+00
 -1        30 0.00000E+00 0.00000E+00 0.00000E+00
 -1        31 0.00000E+00 0.00000E+00 0.00000E+00
 -1        32 0.00000E+00 0.00000E+00 0.00000E+00
 -1        44 1.17836E-04-1.27856E-03 1.85517E-04
 -1        45 2.62999E-05-9.91440E-04 2.99158E-04
 -1        46-3.21631E-05-7.23359E-04 3.42285E-04
 -1        47 4.31772E-05-2.92633E-04 2.25080E-04
 -1        48-4.31661E-05-2.92611E-04 2.25047E-04
 -1        49 3.21966E-05-7.23348E-04 3.42245E-04
 -1        50-2.61440E-05-9.91432E-04 2.99083E-04
 -1        51-1.17496E-04-1.27875E-03 1.85428E-04
 -1        74-1.17776E-04-1.27752E-03-1.85392E-04
 -1        75-2.63581E-05-9.90972E-04-2.99159E-04
 -1        76 3.20466E-05-7.23383E-04-3.42313E-04
 -1        77-4.31284E-05-2.92752E-04-2.25051E-04
 -1        89 1.18051E-04-1.27744E-03-1.85523E-04
 -1        90 2.65657E-05-9.90922E-04-2.99246E-04
 -1        91-3.20030E-05-7.23389E-04-3.42352E-04
 -1        92 4.31474E-05-2.92765E-04-2.25083E-04
 -1        98 0.00000E+00 0.00000E+00 0.00000E+00
 -1        99 0.00000E+00 0.00000E+00 0.00000E+00
 -1       100 0.00000E+00 0.00000E+00 0.00000E+00
 -1       101 0.00000E+00 0.00000E+00 0.00000E+00
 -1       102 0.00000E+00 0.00000E+00 0.00000E+00
 -1       124-2.53500E-06-1.17116E-03 1.74687E-04
 -1       125 1.77009E-07-1.40258E-03 1.83409E-04
 -1       126 2.85340E-06-1.17111E-03 1.74678E-04
 -1       127 6.86823E-08-1.03192E-03 3.30051E-04
 -1       128 2.43683E-06-7.60109E-04 3.67229E-04
 -1       129 3.15684E-08-7.03992E-04 3.74117E-04
 -1       130-2.38321E-06-7.60104E-04 3.67259E-04
 -1       131 1.52318E-10-2.97329E-04 2.18681E-04
 -1       153-9.86747E-05-1.52233E-03 8.23941E-05
 -1       154 3.54204E-07-1.34492E-03 3.34798E-08
 -1       155 9.87834E-05-1.52006E-03-8.23807E-05
 -1       156 2.29491E-07-1.11443E-03 8.43113E-08
 -1       157 1.98862E-05-6.27974E-04 1.47334E-04
 -1       158 2.90328E-08-6.41892E-04 5.07030E-08
 -1       159-1.97796E-05-6.28389E-04-1.47283E-04
 -1       160-4.76147E-08-2.44066E-04 1.20313E-09
 -1       182-4.60257E-06-1.17167E-03-1.74677E-04
 -1       183 1.92178E-07-1.40169E-03-1.83475E-04
 -1       184 4.90658E-06-1.17170E-03-1.74770E-04
 -1       185 6.35480E-08-1.03159E-03-3.30123E-04
 -1       186 2.82797E-06-7.60031E-04-3.67246E-04
 -1       187 5.48249E-08-7.04462E-04-3.74128E-04
 -1       188-2.74627E-06-7.60021E-04-3.67257E-04
 -1       189 4.17565E-09-2.97424E-04-2.18684E-04
 -1       211-9.85813E-05-1.51998E-03-8.24298E-05
 -1       212-1.33925E-07-1.34491E-03-7.63373E-08
 -1       213 9.89216E-05-1.52245E-03 8.22761E-05
 -1       214-1.00402E-07-1.11444E-03-1.30589E-08
 -1       215 1.98521E-05-6.28390E-04-1.47355E-04
 -1       216 5.25697E-08-6.41869E-04-1.52051E-08
 -1       217-1.98200E-05-6.27949E-04 1.47284E-04
 -1       218 6.90740E-08-2.44062E-04-2.20316E-08
 -1       250 1.12503E-07-1.51164E-03 8.18270E-05
 -1       251-1.02693E-06-9.57939E-04-4.59051E-08
 -1       252 3.75964E-08-1.22255E-03-5.30624E-08
 -1       253 1.19056E-06-9.57946E-04 2.47627E-08
 -1       254 1.26116E-07-1.51331E-03-8.18390E-05
 -1       255 6.79855E-08-1.09041E-03-1.32130E-08
 -1       256 2.68920E-08-6.20423E-04 1.64292E-04
 -1       257 2.53157E-07-7.24339E-04-2.52516E-08
 -1       258 2.35410E-08-6.42759E-04 2.75426E-09
 -1       259-1.95007E-07-7.24350E-04 4.25972E-09
 -1       260 3.69907E-08-6.20186E-04-1.64305E-04
 -1       261 1.36804E-08-2.75887E-04 1.19455E-08
 -3
    1PSTEP                         4           4           1          
  100CL  104 2.00000E-02          81                     1    4           1
 -4  DISP        4    1
 -5  D1          1    2    1    0
 -5  D2          1    2    2    0
 -5  D3          1    2    3    0
 -5  ALL         1    2    0    0    1ALL
 -1         5 0.00000E+00 0.00000E+00 0.00000E+00
 -1         6 0.00000E+00 0.00000E+00 0.00000E+00
 -1         7 0.00000E+00 0.00000E+00 0.00000E+00
 -1         8 0.00000E+00 0.00000E+00 0.00000E+00
 -1        21 0.00000E+00 0.00000E+00 0.00000E+00
 -1        22 0.00000E+00 0.00000E+00 0.00000E+00
 -1        23 0.00000E+00 0.00000E+00 0.00000E+00
 -1        24 0.00000E+00 0.00000E+00 0.00000E+00
 -1        25 0.00000E+00 0.00000E+00 0.00000E+00
 -1        26 0.00000E+00 0.00000E+00 0.00000E+00
 -1        27 0.00000E+00 0.00000E+00 0.00000E+00
 -1        28 0.00000E+00 0.00000E+00 0.00000E+00
 -1        29 0.00000E+00 0.00000E+00 0.00000E+00
 -1        30 0.00000E+00 0.00000E+00 0.00000E+00
 -1        31 0.00000E+00 0.00000E+00 0.00000E+00
 -1        32 0.00000E+00 0.00000E+00 0.00000E+00
 -1        44-9.74548E-05 9.85158E-04-1.43838E-04
 -1        45-2.32966E-05 7.66653E-04-2.31692E-04
 -1        46 2.64516E-05 5.62670E-04-2.65514E-04
 -1        47-3.26976E-05 2.28024E-04-1.74738E-04
 -1        48 3.27079E-05 2.28012E-04-1.74720E-04
 -1        49-2.64173E-05 5.62645E-04-2.65501E-04
 -1        50 2.32365E-05 7.66678E-04-2.31726E-04
 -1        51 9.72382E-05 9.85420E-04-1.43828E-04
 -1        74 9.25245E-05 9.89440E-04 1.43934E-04
 -1        75 2.06555E-05 7.69041E-04 2.31844E-04
 -1        76-2.51104E-05 5.61480E-04 2.65500E-04
 -1        77 3.34500E-05 2.27350E-04 1.74697E-04
 -1        89-9.27396E-05 9.89189E-04 1.43957E-04
 -1        90-2.07562E-05 7.68989E-04 2.31816E-04
 -1        91 2.51364E-05 5.61490E-04 2.65521E-04
 -1        92-3.34474E-05 2.27355E-04 1.74720E-04
 -1        98 0.00000E+00 0.00000E+00 0.00000E+00
 -1        99 0.00000E+00 0.00000E+00 0.00000E+00
 -1       100 0.00000E+00 0.00000E+00 0.00000E+00
 -1       101 0.00000E+00 0.00000E+00 0.00000E+00
 -1       102 0.00000E+00 0.00000E+00 0.00000E+00
 -1       124 4.87704E-06 9.10850E-04-1.35563E-04
 -1       125-1.03943E-07 1.08628E-03-1.42194E-04
 -1       126-5.04206E-06 9.10805E-04-1.35537E-04
 -1       127-6.41427E-09 8.00290E-04-2.56830E-04
 -1       128-2.51995E-06 5.89428E-04-2.84952E-04
 -1       129-1.11977E-08 5.47139E-04-2.90596E-04
 -1       130 2.51412E-06 5.89421E-04-2.84963E-04
 -1       131 8.36136E-09 2.30945E-04-1.69726E-04
 -1       153 7.90123E-05 1.17742E-03-6.39818E-05
 -1       154-1.09156E-06 1.04551E-03 9.68686E-08
 -1       155-7.73010E-05 1.17981E-03 6.38869E-05
 -1       156-4.08123E-08 8.65709E-04 2.70916E-07
 -1       157-1.59097E-05 4.88077E-04-1.14356E-04
 -1       158 1.40603E-07 4.97674E-04 7.15033E-08
 -1       159 1.55040E-05 4.87459E-04 1.14344E-04
 -1       160 2.54131E-08 1.89165E-04 8.65739E-09
 -1       182 2.43733E-06 9.09609E-04 1.35554E-04
 -1       183-1.33296E-07 1.08730E-03 1.42258E-04
 -1       184-2.63112E-06 9.09578E-04 1.35585E-04
 -1       185-7.35571E-09 7.99861E-04 2.56287E-04
 -1       186-1.89705E-06 5.89709E-04 2.84989E-04
 -1       187-2.72186E-08 5.47182E-04 2.90390E-04
 -1       188 1.87103E-06 5.89694E-04 2.84993E-04
 -1       189 4.97662E-09 2.31060E-04 1.69717E-04
 -1       211 7.72544E-05 1.17962E-03 6.39404E-05
 -1       212 1.08026E-06 1.04551E-03-3.09653E-08
 -1       213-7.90612E-05 1.17761E-03-6.39357E-05
 -1       214 5.19005E-08 8.65697E-04 2.85040E-07
 -1       215-1.55201E-05 4.87472E-04 1.14345E-04
 -1       216-1.70750E-07 4.97664E-04 9.73171E-08
 -1       217 1.58979E-05 4.88047E-04-1.14361E-04
 -1       218-2.50129E-08 1.89161E-04 7.68117E-09
 -1       250-6.21071E-09 1.17519E-03-6.33378E-05
 -1       251-2.78976E-07 7.42614E-04-6.87636E-08
 -1       252 1.13812E-07 9.49620E-04 4.67405E-09
 -1       253 3.61484E-07 7.42615E-04 1.96727E-08
 -1       254-2.40842E-08 1.17413E-03 6.35194E-05
 -1       255-1.45747E-08 8.46289E-04-1.75610E-08
 -1       256 4.89551E-09 4.81312E-04-1.27498E-04
 -1       257 1.13264E-07 5.62463E-04 5.82091E-09
 -1       258 1.63782E-08 4.98942E-04 5.66796E-09
 -1       259-1.03749E-07 5.62468E-04-1.37467E-08
 -1       260-2.26128E-09 4.81669E-04 1.27500E-04
 -1       261-8.73334E-09 2.14130E-04 1.47837E-10
 -3
    1PSTEP                         5           5           1          
  100CL  105 2.50000E-02          81                     1    5           1
 -4  DISP        4    1
 -5  D1          1    2    1    0
 -5  D2          1    2    2    0
 -5  D3          1    2    3    0
 -5  ALL         1    2    0    0    1ALL
 -1         5 0.00000E+00 0.00000E+00 0.00000E+00
 -1         6 0.00000E+00 0.00000E+00 0.00000E+00
 -1         7 0.00000E+00 0.00000E+00 0.00000E+00
 -1         8 0.00000E+00 0.00000E+00 0.00000E+00
 -1        21 0.00000E+00 0.00000E+00 0.00000E+00
 -1        22 0.00000E+00 0.00000E+00 0.00000E+00
 -1        23 0.00000E+00 0.00000E+00 0.00000E+00
 -1        24 0.00000E+00 0.00000E+00 0.00000E+00
 -1        25 0.00000E+00 0.00000E+00 0.00000E+00
 -1        26 0.00000E+00 0.00000E+00 0.00000E+00
 -1        27 0.00000E+00 0.00000E+00 0.00000E+00
 -1        28 0.00000E+00 0.00000E+00 0.00000E+00
 -1        29 0.00000E+00 0.00000E+00 0.00000E+00
 -1        30 0.00000E+00 0.00000E+00 0.00000E+00
 -1        31 0.00000E+00 0.00000E+00 0.00000E+00
 -1        32 0.00000E+00 0.00000E+00 0.00000E+00
 -1        44 6.93397E-05-7.47821E-04 1.08681E-04
 -1        45 1.57356E-05-5.79969E-04 1.75393E-04
 -1        46-1.93343E-05-4.24653E-04 2.00536E-04
 -1        47 2.51324E-05-1.71741E-04 1.31859E-04
 -1        48-2.51283E-05-1.71743E-04 1.31873E-04
 -1        49 1.93736E-05-4.24658E-04 2.00547E-04
 -1        50-1.57567E-05-5.79955E-04 1.75332E-04
 -1        51-6.93559E-05-7.47678E-04 1.08611E-04
 -1        74-6.82802E-05-7.48696E-04-1.08604E-04
 -1        75-1.51445E-05-5.80558E-04-1.75337E-04
 -1        76 1.83668E-05-4.23655E-04-2.00551E-04
 -1        77-2.53549E-05-1.71524E-04-1.31874E-04
 -1        89 6.83652E-05-7.48725E-04-1.08663E-04
 -1        90 1.50956E-05-5.80595E-04-1.75394E-04
 -1        91-1.83133E-05-4.23637E-04-2.00535E-04
 -1        92 2.53583E-05-1.71523E-04-1.31857E-04
 -1        98 0.00000E+00 0.00000E+00 0.00000E+00
 -1        99 0.00000E+00 0.00000E+00 0.00000E+00
 -1       100 0.00000E+00 0.00000E+00 0.00000E+00
 -1       101 0.00000E+00 0.00000E+00 0.00000E+00
 -1       102 0.00000E+00 0.00000E+00 0.00000E+00
 -1       124 2.34533E-07-6.86762E-04 1.02343E-04
 -1       125-3.84462E-08-8.20381E-04 1.07477E-04
 -1       126-2.61883E-07-6.86794E-04 1.02350E-04
 -1       127 1.40598E-08-6.04413E-04 1.93324E-04
 -1       128 1.19117E-06-4.45173E-04 2.15129E-04
 -1       129-6.23785E-09-4.12382E-04 2.19182E-04
 -1       130-1.18360E-06-4.45178E-04 2.15131E-04
 -1       131 5.15877E-09-1.74295E-04 1.28134E-04
 -1       153-5.79059E-05-8.93985E-04 4.82247E-05
 -1       154 2.52725E-07-7.88188E-04 5.10341E-08
 -1       155 5.75553E-05-8.89356E-04-4.82258E-05
 -1       156-3.47405E-08-6.52655E-04-6.75439E-08
 -1       157 1.16178E-05-3.67823E-04 8.62947E-05
 -1       158 2.09218E-07-3.76291E-04-2.91604E-08
 -1       159-1.14960E-05-3.68524E-04-8.62758E-05
 -1       160-1.56726E-08-1.43052E-04-1.65168E-08
 -1       182-4.27929E-06-6.86440E-04-1.02398E-04
 -1       183-4.59312E-08-8.20844E-04-1.07505E-04
 -1       184 4.29106E-06-6.86399E-04-1.02322E-04
 -1       185 3.25491E-08-6.04249E-04-1.93173E-04
 -1       186 1.87723E-06-4.45281E-04-2.15121E-04
 -1       187-2.09937E-08-4.12847E-04-2.19116E-04
 -1       188-1.87678E-06-4.45282E-04-2.15138E-04
 -1       189 5.86621E-09-1.74267E-04-1.28092E-04
 -1       211-5.74739E-05-8.89402E-04-4.82417E-05
 -1       212-2.51173E-07-7.88185E-04-5.89234E-08
 -1       213 5.79242E-05-8.93884E-04 4.82525E-05
 -1       214 8.84709E-08-6.52643E-04-8.26215E-08
 -1       215 1.15080E-05-3.68515E-04-8.62851E-05
 -1       216-2.25535E-07-3.76303E-04-3.05986E-08
 -1       217-1.16111E-05-3.67837E-04 8.62714E-05
 -1       218 2.12865E-08-1.43051E-04-2.59008E-08
 -1       250 1.86868E-08-8.82485E-04 4.79293E-05
 -1       251-2.35953E-06-5.61204E-04-4.42480E-08
 -1       252 8.58145E-08-7.15776E-04-1.58055E-09
 -1       253 2.43668E-06-5.61202E-04 7.01473E-08
 -1       254 9.49633E-09-8.87257E-04-4.79536E-05
 -1       255 6.96737E-10-6.39044E-04-2.30428E-09
 -1       256 7.79267E-09-3.63861E-04 9.62685E-05
 -1       257 4.10148E-07-4.24360E-04 5.28126E-09
 -1       258 2.00019E-08-3.76352E-04 8.19039E-10
 -1       259-3.94799E-07-4.24355E-04-8.27755E-09
 -1       260 1.77556E-09-3.63071E-04-9.62675E-05
 -1       261-3.88716E-09-1.61604E-04 1.93189E-09
 -3
    1PSTEP                         6           6           1          
  100CL  106 3.00000E-02          81                     1    6           1
 -4  DISP        4    1
 -5  D1          1    2    1    0
 -5  D2          1    2    2    0
 -5  D3          1    2    3    0
 -5  ALL         1    2    0    0    1ALL
 -1         5 0.00000E+00 0.00000E+00 0.00000E+00
 -1         6 0.00000E+00 0.00000E+00 0.00000E+00
 -1         7 0.00000E+00 0.00000E+00 0.00000E+00
 -1         8 0.00000E+00 0.00000E+00 0.00000E+00
 -1        21 0.00000E+00 0.00000E+00 0.00000E+00
 -1        22 0.00000E+00 0.00000E+00 0.00000E+00
 -1        23 0.00000E+00 0.00000E+00 0.00000E+00
 -1        24 0.00000E+00 0.00000E+00 0.00000E+00
 -1        25 0.00000E+00 0.00000E+00 0.00000E+00
 -1        26 0.00000E+00 0.00000E+00 0.00000E+00
 -1        27 0.00000E+00 0.00000E+00 0.00000E+00
 -1        28 0.00000E+00 0.00000E+00 0.00000E+00
 -1        29 0.00000E+00 0.00000E+00 0.00000E+00
 -1        30 0.00000E+00 0.00000E+00 0.00000E+00
 -1        31 0.00000E+00 0.00000E+00 0.00000E+00
 -1        32 0.00000E+00 0.00000E+00 0.00000E+00
 -1        44-5.32136E-05 5.39739E-04-7.87596E-05
 -1        45-1.26164E-05 4.19958E-04-1.26843E-04
 -1        46 1.42707E-05 3.07668E-04-1.45307E-04
 -1        47-1.79473E-05 1.24740E-04-9.56589E-05