    1C
    1UUSER                                                              
    1UDATE              17.july.2018                                    
    1UTIME              01:46:29                                        
    1UHOST                                                              
    1UPGM               CalculiX                                        
    1UVERSION           Version 2.13                             
    1UCOMPILETIME       jue jun 14 00:40:39 CEST 2018                    
    1UDIR                                                               
    1UDBN                                                               
    1UMAT    1EL                                                        
    2C                            81                                     1
 -1         5 0.00000E+00 0.00000E+00 8.00000E+00
 -1         6 1.00000E+00 0.00000E+00 8.00000E+00
 -1         7 1.00000E+00 1.00000E+00 8.00000E+00
 -1         8 0.00000E+00 1.00000E+00 8.00000E+00
 -1        21 2.50000E-01 0.00000E+00 8.00000E+00
 -1        22 5.00000E-01 0.00000E+00 8.00000E+00
 -1        23 7.50000E-01 0.00000E+00 8.00000E+00
 -1        24 1.00000E+00 2.50000E-01 8.00000E+00
 -1        25 1.00000E+00 5.00000E-01 8.00000E+00
 -1        26 1.00000E+00 7.50000E-01 8.00000E+00
 -1        27 7.50000E-01 1.00000E+00 8.00000E+00
 -1        28 5.00000E-01 1.00000E+00 8.00000E+00
 -1        29 2.50000E-01 1.00000E+00 8.00000E+00
 -1        30 0.00000E+00 7.50000E-01 8.00000E+00
 -1        31 0.00000E+00 5.00000E-01 8.00000E+00
 -1        32 0.00000E+00 2.50000E-01 8.00000E+00
 -1        44 1.00000E+00 0.00000E+00 6.00000E+00
 -1        45 1.00000E+00 0.00000E+00 6.50000E+00
 -1        46 1.00000E+00 0.00000E+00 7.00000E+00
 -1        47 1.00000E+00 0.00000E+00 7.50000E+00
 -1        48 0.00000E+00 0.00000E+00 7.50000E+00
 -1        49 0.00000E+00 0.00000E+00 7.00000E+00
 -1        50 0.00000E+00 0.00000E+00 6.50000E+00
 -1        51 0.00000E+00 0.00000E+00 6.00000E+00
 -1        74 1.00000E+00 1.00000E+00 6.00000E+00
 -1        75 1.00000E+00 1.00000E+00 6.50000E+00
 -1        76 1.00000E+00 1.00000E+00 7.00000E+00
 -1        77 1.00000E+00 1.00000E+00 7.50000E+00
 -1        89 0.00000E+00 1.00000E+00 6.00000E+00
 -1        90 0.00000E+00 1.00000E+00 6.50000E+00
 -1        91 0.00000E+00 1.00000E+00 7.00000E+00
 -1        92 0.00000E+00 1.00000E+00 7.50000E+00
 -1        98 5.00000E-01 2.50000E-01 8.00000E+00
 -1        99 2.50000E-01 5.00000E-01 8.00000E+00
 -1       100 5.00000E-01 5.00000E-01 8.00000E+00
 -1       101 7.50000E-01 5.00000E-01 8.00000E+00
 -1       102 5.00000E-01 7.50000E-01 8.00000E+00
 -1       124 2.50000E-01 0.00000E+00 6.00000E+00
 -1       125 5.00000E-01 0.00000E+00 6.00000E+00
 -1       126 7.50000E-01 0.00000E+00 6.00000E+00
 -1       127 5.00000E-01 0.00000E+00 6.50000E+00
 -1       128 2.50000E-01 0.00000E+00 7.00000E+00
 -1       129 5.00000E-01 0.00000E+00 7.00000E+00
 -1       130 7.50000E-01 0.00000E+00 7.00000E+00
 -1       131 5.00000E-01 0.00000E+00 7.50000E+00
 -1       153 1.00000E+00 2.50000E-01 6.00000E+00
 -1       154 1.00000E+00 5.00000E-01 6.00000E+00
 -1       155 1.00000E+00 7.50000E-01 6.00000E+00
 -1       156 1.00000E+00 5.00000E-01 6.50000E+00
 -1       157 1.00000E+00 2.50000E-01 7.00000E+00
 -1       158 1.00000E+00 5.00000E-01 7.00000E+00
 -1       159 1.00000E+00 7.50000E-01 7.00000E+00
 -1       160 1.00000E+00 5.00000E-01 7.50000E+00
 -1       182 7.50000E-01 1.00000E+00 6.00000E+00
 -1       183 5.00000E-01 1.00000E+00 6.00000E+00
 -1       184 2.50000E-01 1.00000E+00 6.00000E+00
 -1       185 5.00000E-01 1.00000E+00 6.50000E+00
 -1       186 7.50000E-01 1.00000E+00 7.00000E+00
 -1       187 5.00000E-01 1.00000E+00 7.00000E+00
 -1       188 2.50000E-01 1.00000E+00 7.00000E+00
 -1       189 5.00000E-01 1.00000E+00 7.50000E+00
 -1       211 0.00000E+00 7.50000E-01 6.00000E+00
 -1       212 0.00000E+00 5.00000E-01 6.00000E+00
 -1       213 0.00000E+00 2.50000E-01 6.00000E+00
 -1       214 0.00000E+00 5.00000E-01 6.50000E+00
 -1       215 0.00000E+00 7.50000E-01 7.00000E+00
 -1       216 0.00000E+00 5.00000E-01 7.00000E+00
 -1       217 0.00000E+00 2.50000E-01 7.00000E+00
 -1       218 0.00000E+00 5.00000E-01 7.50000E+00
 -1       250 5.00000E-01 2.50000E-01 6.00000E+00
 -1       251 2.50000E-01 5.00000E-01 6.00000E+00
 -1       252 5.00000E-01 5.00000E-01 6.00000E+00
 -1       253 7.50000E-01 5.00000E-01 6.00000E+00
 -1       254 5.00000E-01 7.50000E-01 6.00000E+00
 -1       255 5.00000E-01 5.00000E-01 6.50000E+00
 -1       256 5.00000E-01 2.50000E-01 7.00000E+00
 -1       257 2.50000E-01 5.00000E-01 7.00000E+00
 -1       258 5.00000E-01 5.00000E-01 7.00000E+00
 -1       259 7.50000E-01 5.00000E-01 7.00000E+00
 -1       260 5.00000E-01 7.50000E-01 7.00000E+00
 -1       261 5.00000E-01 5.00000E-01 7.50000E+00
 -3
    3C                             8                                     1
 -1        25    4    0    1
 -2        51       125       252       212        49       129       258       216       124       250
 -2       251       213        50       127       255       214       128       256       257       217
 -1        26    4    0    1
 -2       125        44       154       252       129        46       158       258       126       153
 -2       253       250       127        45       156       255       130       157       259       256
 -1        27    4    0    1
 -2       212       252       183        89       216       258       187        91       251       254
 -2       184       211       214       255       185        90       257       260       188       215
 -1        28    4    0    1
 -2       252       154        74       183       258       158        76       187       253       155
 -2       182       254       255       156        75       185       259       159       186       260
 -1        29    4    0    1
 -2        49       129       258       216         5        22       100        31       128       256
 -2       257       217        48       131       261       218        21        98        99        32
 -1        30    4    0    1
 -2       129        46       158       258        22         6        25       100       130       157
 -2       259       256       131        47       160       261        23        24       101        98
 -1        31    4    0    1
 -2       216       258       187        91        31       100        28         8       257       260
 -2       188       215       218       261       189        92        99       102        29        30
 -1        32    4    0    1
 -2       258       158        76       187       100        25         7        28       259       159
 -2       186       260       261       160        77       189       101        26        27       102
 -3
    1PSTEP                         1           1           1          
  100CL  101 5.00000E-03          81                     1    1           1
 -4  DISP        4    1
 -5  D1          1    2    1    0
 -5  D2          1    2    2    0
 -5  D3          1    2    3    0
 -5  ALL         1    2    0    0    1ALL
 -1         5 0.00000E+00 0.00000E+00 0.00000E+00
 -1         6 0.00000E+00 0.00000E+00 0.00000E+00
 -1         7 0.00000E+00 0.00000E+00 0.00000E+00
 -1         8 0.00000E+00 0.00000E+00 0.00000E+00
 -1        21 0.00000E+00 0.00000E+00 0.00000E+00
 -1        22 0.00000E+00 0.00000E+00 0.00000E+00
 -1        23 0.00000E+00 0.00000E+00 0.00000E+00
 -1        24 0.00000E+00 0.00000E+00 0.00000E+00
 -1        25 0.00000E+00 0.00000E+00 0.00000E+00
 -1        26 0.00000E+00 0.00000E+00 0.00000E+00
 -1        27 0.00000E+00 0.00000E+00 0.00000E+00
 -1        28 0.00000E+00 0.00000E+00 0.00000E+00
 -1        29 0.00000E+00 0.00000E+00 0.00000E+00
 -1        30 0.00000E+00 0.00000E+00 0.00000E+00
 -1        31 0.00000E+00 0.00000E+00 0.00000E+00
 -1        32 0.00000E+00 0.00000E+00 0.00000E+00
 -1        44-7.12312E-05-3.46825E-03 4.47753E-04
 -1        45 5.48192E-05-2.55891E-03 7.85374E-04
 -1        46-4.47177E-05-1.79469E-03 9.49860E-04
 -1        47 1.31455E-04-6.74073E-04 5.42137E-04
 -1        48-1.31458E-04-6.74074E-04 5.42140E-04
 -1        49 4.47136E-05-1.79469E-03 9.49866E-04
 -1        50-5.48362E-05-2.55892E-03 7.85386E-04
 -1        51 7.12071E-05-3.46824E-03 4.47761E-04
 -1        74 3.54201E-04-4.41944E-03-4.93918E-04
 -1        75 2.03583E-04-2.97486E-03-7.85778E-04
 -1        76-1.16493E-04-1.59634E-03-9.51235E-04
 -1        77-2.11503E-04-5.24595E-04-5.57028E-04
 -1        89-3.54221E-04-4.41946E-03-4.93928E-04
 -1        90-2.03598E-04-2.97485E-03-7.85776E-04
 -1        91 1.16486E-04-1.59634E-03-9.51226E-04
 -1        92 2.11501E-04-5.24595E-04-5.57025E-04
 -1        98 0.00000E+00 0.00000E+00 0.00000E+00
 -1        99 0.00000E+00 0.00000E+00 0.00000E+00
 -1       100 0.00000E+00 0.00000E+00 0.00000E+00
 -1       101 0.00000E+00 0.00000E+00 0.00000E+00
 -1       102 0.00000E+00 0.00000E+00 0.00000E+00
 -1       124 1.39628E-04-2.96349E-03 4.28502E-04
 -1       125-1.85987E-08-3.57979E-03 4.47672E-04
 -1       126-1.39658E-04-2.96350E-03 4.28500E-04
 -1       127-6.58797E-09-2.55810E-03 9.01869E-04
 -1       128-7.06669E-06-1.95268E-03 9.47234E-04
 -1       129-4.23126E-09-1.81542E-03 9.39739E-04
 -1       130 7.06037E-06-1.95268E-03 9.47230E-04
 -1       131-5.38669E-10-7.36735E-04 5.56296E-04
 -1       153 7.94164E-05-3.61763E-03 1.90489E-04
 -1       154-1.10561E-04-2.48197E-03-2.07162E-05
 -1       155-8.57211E-05-3.89200E-03-2.37390E-04
 -1       156-1.17002E-04-2.78674E-03-6.52846E-05
 -1       157-2.31582E-05-1.50914E-03 3.92603E-04
 -1       158 8.50729E-05-1.56417E-03-2.95524E-05
 -1       159 5.18223E-05-1.47118E-03-4.11131E-04
 -1       160 3.89407E-05-6.57497E-04 4.81784E-06
 -1       182 1.34617E-04-2.56099E-03-4.69864E-04
 -1       183-7.47420E-09-4.33658E-03-4.76026E-04
 -1       184-1.34635E-04-2.56100E-03-4.69865E-04
 -1       185-8.42198E-09-2.82166E-03-8.70439E-04
 -1       186-4.75771E-05-2.16171E-03-9.81857E-04
 -1       187-2.09320E-09-1.83522E-03-9.60845E-04
 -1       188 4.75718E-05-2.16171E-03-9.81853E-04
 -1       189-8.69143E-10-7.22485E-04-5.64590E-04
 -1       211 8.56980E-05-3.89201E-03-2.37380E-04
 -1       212 1.10534E-04-2.48198E-03-2.07017E-05
 -1       213-7.94439E-05-3.61763E-03 1.90502E-04
 -1       214 1.16987E-04-2.78674E-03-6.52755E-05
 -1       215-5.18299E-05-1.47118E-03-4.11125E-04
 -1       216-8.50812E-05-1.56417E-03-2.95459E-05
 -1       217 2.31523E-05-1.50914E-03 3.92608E-04
 -1       218-3.89432E-05-6.57496E-04 4.82181E-06
 -1       250-1.63187E-08-4.09065E-03 1.74135E-04
 -1       251 3.78087E-05-2.56894E-03-1.03941E-05
 -1       252-1.29129E-08-3.12861E-03-1.59827E-05
 -1       253-3.78351E-05-2.56894E-03-1.04019E-05
 -1       254-9.41904E-09-4.39610E-03-2.54063E-04
 -1       255-7.15751E-09-2.59699E-03-3.17654E-05
 -1       256-4.12769E-09-1.60541E-03 3.94495E-04
 -1       257-4.22129E-05-1.74689E-03-1.19832E-05
 -1       258-3.98308E-09-1.79019E-03-1.45564E-05
 -1       259 4.22050E-05-1.74689E-03-1.19863E-05
 -1       260-3.31230E-09-1.62646E-03-4.17240E-04
 -1       261-8.26050E-10-7.16024E-04-1.83093E-06
 -3
    1PSTEP                         2           2           1          
  100CL  102 1.00000E-02          81                     1    2           1
 -4  DISP        4    1
 -5  D1          1    2    1    0
 -5  D2          1    2    2    0
 -5  D3          1    2    3    0
 -5  ALL         1    2    0    0    1ALL
 -1         5 0.00000E+00 0.00000E+00 0.00000E+00
 -1         6 0.00000E+00 0.00000E+00 0.00000E+00
 -1         7 0.00000E+00 0.00000E+00 0.00000E+00
 -1         8 0.00000E+00 0.00000E+00 0.00000E+00
 -1        21 0.00000E+00 0.00000E+00 0.00000E+00
 -1        22 0.00000E+00 0.00000E+00 0.00000E+00
 -1        23 0.00000E+00 0.00000E+00 0.00000E+00
 -1        24 0.00000E+00 0.00000E+00 0.00000E+00
 -1        25 0.00000E+00 0.00000E+00 0.00000E+00
 -1        26 0.00000E+00 0.00000E+00 0.00000E+00
 -1        27 0.00000E+00 0.00000E+00 0.00000E+00
 -1        28 0.00000E+00 0.00000E+00 0.00000E+00
 -1        29 0.00000E+00 0.00000E+00 0.00000E+00
 -1        30 0.00000E+00 0.00000E+00 0.00000E+00
 -1        31 0.00000E+00 0.00000E+00 0.00000E+00
 -1        32 0.00000E+00 0.00000E+00 0.00000E+00
 -1        44-1.48083E-04 1.61218E-03-2.33914E-04
 -1        45-3.34832E-05 1.25164E-03-3.77061E-04
 -1        46 4.05665E-05 9.12497E-04-4.32283E-04
 -1        47-5.46328E-05 3.69091E-04-2.83995E-04
 -1        48 5.46045E-05 3.69060E-04-2.83926E-04
 -1        49-4.05915E-05 9.12503E-04-4.32206E-04
 -1        50 3.30893E-05 1.25170E-03-3.76934E-04
 -1        51 1.47416E-04 1.61268E-03-2.33784E-04
 -1        74 1.51962E-04 1.61133E-03 2.34043E-04
 -1        75 3.51276E-05 1.25029E-03 3.77043E-04
 -1        76-4.12160E-05 9.13090E-04 4.32267E-04
 -1        77 5.40738E-05 3.69275E-04 2.83995E-04
 -1        89-1.52643E-04 1.61081E-03 2.34173E-04
 -1        90-3.54475E-05 1.25027E-03 3.77150E-04
 -1        91 4.11919E-05 9.13109E-04 4.32341E-04
 -1        92-5.40878E-05 3.69317E-04 2.84056E-04
 -1        98 0.00000E+00 0.00000E+00 0.00000E+00
 -1        99 0.00000E+00 0.00000E+00 0.00000E+00
 -1       100 0.00000E+00 0.00000E+00 0.00000E+00
 -1       101 0.00000E+00 0.00000E+00 0.00000E+00
 -1       102 0.00000E+00 0.00000E+00 0.00000E+00
 -1       124 2.05504E-06 1.47826E-03-2.20344E-04
 -1       125-4.50343E-07 1.77020E-03-2.31219E-04
 -1       126-2.77673E-06 1.47817E-03-2.20379E-04
 -1       127-1.18518E-07 1.30118E-03-4.17144E-04
 -1       128-2.89635E-06 9.59413E-04-4.63514E-04
 -1       129-9.55938E-08 8.89459E-04-4.72142E-04
 -1       130 2.77535E-06 9.59377E-04-4.63552E-04
 -1       131 1.68658E-09 3.75471E-04-2.76021E-04
 -1       153 1.23475E-04 1.91784E-03-1.03904E-04
 -1       154 1.17636E-06 1.69369E-03-1.08439E-08
 -1       155-1.25797E-04 1.91497E-03 1.03973E-04
 -1       156 3.36708E-07 1.40748E-03-1.35354E-07
 -1       157-2.48595E-05 7.92006E-04-1.86106E-04
 -1       158-6.55846E-07 8.08998E-04-5.97067E-08
 -1       159 2.49928E-05 7.92891E-04 1.86141E-04
 -1       160-1.53784E-07 3.07964E-04-5.00231E-08
 -1       182 6.87769E-06 1.47851E-03 2.20586E-04
 -1       183-3.77257E-07 1.77141E-03 2.31359E-04
 -1       184-7.53403E-06 1.47839E-03 2.20562E-04
 -1       185-1.19942E-07 1.30256E-03 4.17673E-04
 -1       186-3.76872E-06 9.59977E-04 4.63655E-04
 -1       187-6.42891E-08 8.89962E-04 4.72497E-04
 -1       188 3.67968E-06 9.59957E-04 4.63706E-04
 -1       189 6.05175E-09 3.75400E-04 2.76083E-04
 -1       211 1.25307E-04 1.91461E-03 1.04200E-04
 -1       212-1.72150E-06 1.69368E-03 2.03604E-07
 -1       213-1.23962E-04 1.91819E-03-1.03688E-04
 -1       214-4.98850E-07 1.40750E-03 5.88133E-08
 -1       215-2.51305E-05 7.92932E-04 1.86234E-04
 -1       216 4.61064E-07 8.09010E-04 7.02906E-08
 -1       217 2.47218E-05 7.91989E-04-1.86006E-04
 -1       218 1.30470E-07 3.07971E-04-1.93564E-08
 -1       250-2.08361E-07 1.91099E-03-1.02996E-04
 -1       251 1.04378E-06 1.20880E-03 1.23967E-07
 -1       252 7.09766E-08 1.54458E-03 1.82921E-07
 -1       253-1.29401E-06 1.20881E-03 6.89340E-08
 -1       254-1.60540E-07 1.91496E-03 1.03348E-04
 -1       255-1.40874E-07 1.37506E-03 1.60420E-07
 -1       256-4.69876E-08 7.83532E-04-2.07223E-04
 -1       257-1.57324E-07 9.14099E-04 1.07344E-07
 -1       258-4.20791E-09 8.12530E-04 5.18319E-08
 -1       259 7.43380E-08 9.14092E-04 2.98291E-08
 -1       260-3.35884E-08 7.83026E-04 2.07308E-04
 -1       261-2.93517E-08 3.48373E-04 5.61920E-09
 -3
    1PSTEP                         3           3           1          
  100CL  103 1.50000E-02          81                     1    3           1
 -4  DISP        4    1
 -5  D1          1    2    1    0
 -5  D2          1    2    2    0
 -5  D3          1    2    3    0
 -5  ALL         1    2    0    0    1ALL
 -1         5 0.00000E+00 0.00000E+00 0.00000E+00
 -1         6 0.00000E+00 0.00000E+00 0.00000E+00
 -1         7 0.00000E+00 0.00000E+00 0.00000E+00
 -1         8 0.00000E+00 0.00000E+00 0.00000E+00
 -1        21 0.00000E+00 0.00000E+00 0.00000E+00
 -1        22 0.00000E+00 0.00000E+00 0.00000E+00
 -1        23 0.00000E+00 0.00000E+00 0.00000E+00
 -1        24 0.00000E+00 0.00000E+00 0.00000E+00
 -1        25 0.00000E+00 0.00000E+00 0.00000E+00
 -1        26 0.00000E+00 0.00000E+00 0.00000E+00
 -1        27 0.00000E+00 0.00000E+00 0.00000E+00
 -1        28 0.00000E+00 0.00000E+00 0.00000E+00
 -1        29 0.00000E+00 0.00000E+00 0.00000E+00
 -1        30 0.00000E+00 0.00000E+00 0.00000E+00
 -1        31 0.00000E+00 0.00000E+00 0.00000E+00
 -1        32 0.00000E+00 0.00000E+00 0.00000E+00
 -1        44 1.18891E-04-1.27477E-03 1.85404E-04
 -1        45 2.71941E-05-9.90057E-04 2.98743E-04
 -1        46-3.25952E-05-7.23648E-04 3.42213E-04
 -1        47 4.29996E-05-2.92882E-04 2.24986E-04
 -1        48-4.29513E-05-2.92893E-04 2.24977E-04
 -1        49 3.27161E-05-7.23718E-04 3.42193E-04
 -1        50-2.70180E-05-9.90088E-04 2.98613E-04
 -1        51-1.18529E-04-1.27502E-03 1.85295E-04
 -1        74-1.19282E-04-1.27561E-03-1.85353E-04
 -1        75-2.71595E-05-9.90218E-04-2.98567E-04
 -1        76 3.23898E-05-7.23235E-04-3.42128E-04
 -1        77-4.29495E-05-2.92765E-04-2.24981E-04
 -1        89 1.19474E-04-1.27577E-03-1.85510E-04
 -1        90 2.72071E-05-9.90316E-04-2.98719E-04
 -1        91-3.23481E-05-7.23276E-04-3.42168E-04
 -1        92 4.29455E-05-2.92796E-04-2.24994E-04
 -1        98 0.00000E+00 0.00000E+00 0.00000E+00
 -1        99 0.00000E+00 0.00000E+00 0.00000E+00
 -1       100 0.00000E+00 0.00000E+00 0.00000E+00
 -1       101 0.00000E+00 0.00000E+00 0.00000E+00
 -1       102 0.00000E+00 0.00000E+00 0.00000E+00
 -1       124-2.28317E-06-1.17181E-03 1.74666E-04
 -1       125 1.71017E-07-1.40038E-03 1.83173E-04
 -1       126 2.66665E-06-1.17165E-03 1.74551E-04
 -1       127 1.27693E-07-1.03061E-03 3.30246E-04
 -1       128 2.48790E-06-7.59710E-04 3.67029E-04
 -1       129 4.42293E-08-7.04559E-04 3.73972E-04
 -1       130-2.39417E-06-7.59680E-04 3.67070E-04
 -1       131 1.89751E-08-2.97572E-04 2.18668E-04
 -1       153-9.86408E-05-1.51938E-03 8.23079E-05
 -1       154-3.31398E-07-1.34325E-03 8.09189E-08
 -1       155 9.92859E-05-1.51731E-03-8.22645E-05
 -1       156-1.89085E-07-1.11454E-03 3.61412E-08
 -1       157 1.98201E-05-6.27828E-04 1.47354E-04
 -1       158 3.18704E-07-6.41179E-04 2.36582E-09
 -1       159-1.98241E-05-6.28211E-04-1.47304E-04
 -1       160 7.13233E-08-2.43971E-04 9.60493E-09
 -1       182-5.09902E-06-1.17123E-03-1.74584E-04
 -1       183 6.86319E-08-1.40140E-03-1.83172E-04
 -1       184 5.28679E-06-1.17129E-03-1.74627E-04
 -1       185 3.78433E-08-1.03109E-03-3.30257E-04
 -1       186 2.86545E-06-7.59833E-04-3.67051E-04
 -1       187 2.88346E-09-7.04482E-04-3.74002E-04
 -1       188-2.85018E-06-7.59858E-04-3.67084E-04
 -1       189-3.19058E-09-2.97425E-04-2.18639E-04
 -1       211-9.90526E-05-1.51748E-03-8.23335E-05
 -1       212 5.99182E-07-1.34339E-03-1.32779E-07
 -1       213 9.89570E-05-1.51955E-03 8.21962E-05
 -1       214 3.49773E-07-1.11463E-03-5.90923E-08
 -1       215 1.98824E-05-6.28248E-04-1.47381E-04
 -1       216-2.48093E-07-6.41220E-04-6.32147E-08
 -1       217-1.97213E-05-6.27885E-04 1.47292E-04
 -1       218-5.22688E-08-2.43996E-04-2.33564E-08
 -1       250 1.25961E-07-1.51167E-03 8.17192E-05
 -1       251-8.98934E-07-9.57340E-04-1.13231E-07
 -1       252 1.20092E-07-1.22297E-03 3.70411E-08
 -1       253 1.16412E-06-9.57255E-04 5.29329E-08
 -1       254 8.53990E-08-1.51439E-03-8.17018E-05
 -1       255 7.50069E-08-1.08958E-03-3.28809E-08
 -1       256 4.30766E-08-6.20662E-04 1.64164E-04
 -1       257 1.74040E-07-7.24202E-04-1.06462E-08
 -1       258 3.20641E-08-6.43119E-04-1.07877E-08
 -1       259-1.10232E-07-7.24184E-04 6.67058E-09
 -1       260 2.02211E-08-6.20131E-04-1.64174E-04
 -1       261 6.23830E-09-2.75907E-04-1.35638E-08
 -3
    1PSTEP                         4           4           1          
  100CL  104 2.00000E-02          81                     1    4           1
 -4  DISP        4    1
 -5  D1          1    2    1    0
 -5  D2          1    2    2    0
 -5  D3          1    2    3    0
 -5  ALL         1    2    0    0    1ALL
 -1         5 0.00000E+00 0.00000E+00 0.00000E+00
 -1         6 0.00000E+00 0.00000E+00 0.00000E+00
 -1         7 0.00000E+00 0.00000E+00 0.00000E+00
 -1         8 0.00000E+00 0.00000E+00 0.00000E+00
 -1        21 0.00000E+00 0.00000E+00 0.00000E+00
 -1        22 0.00000E+00 0.00000E+00 0.00000E+00
 -1        23 0.00000E+00 0.00000E+00 0.00000E+00
 -1        24 0.00000E+00 0.00000E+00 0.00000E+00
 -1        25 0.00000E+00 0.00000E+00 0.00000E+00
 -1        26 0.00000E+00 0.00000E+00 0.00000E+00
 -1        27 0.00000E+00 0.00000E+00 0.00000E+00
 -1        28 0.00000E+00 0.00000E+00 0.00000E+00
 -1        29 0.00000E+00 0.00000E+00 0.00000E+00
 -1        30 0.00000E+00 0.00000E+00 0.00000E+00
 -1        31 0.00000E+00 0.00000E+00 0.00000E+00
 -1        32 0.00000E+00 0.00000E+00 0.00000E+00
 -1        44-9.49454E-05 9.88397E-04-1.43935E-04
 -1        45-2.20183E-05 7.68193E-04-2.32020E-04
 -1        46 2.58221E-05 5.62201E-04-2.65613E-04
 -1        47-3.30522E-05 2.27728E-04-1.74797E-04
 -1        48 3.30513E-05 2.27740E-04-1.74820E-04
 -1        49-2.57869E-05 5.62205E-04-2.65648E-04
 -1        50 2.21060E-05 7.68186E-04-2.32053E-04
 -1        51 9.52959E-05 9.88193E-04-1.44042E-04
 -1        74 9.43605E-05 9.89192E-04 1.44090E-04
 -1        75 2.16000E-05 7.68664E-04 2.32138E-04
 -1        76-2.55377E-05 5.61969E-04 2.65621E-04
 -1        77 3.32003E-05 2.27596E-04 1.74796E-04
 -1        89-9.41193E-05 9.89268E-04 1.43952E-04
 -1        90-2.14924E-05 7.68719E-04 2.32089E-04
 -1        91 2.55616E-05 5.61943E-04 2.65619E-04
 -1        92-3.31976E-05 2.27584E-04 1.74787E-04
 -1        98 0.00000E+00 0.00000E+00 0.00000E+00
 -1        99 0.00000E+00 0.00000E+00 0.00000E+00
 -1       100 0.00000E+00 0.00000E+00 0.00000E+00
 -1       101 0.00000E+00 0.00000E+00 0.00000E+00
 -1       102 0.00000E+00 0.00000E+00 0.00000E+00
 -1       124 4.15657E-06 9.10564E-04-1.35786E-04
 -1       125 1.09193E-07 1.08755E-03-1.42389E-04
 -1       126-3.91937E-06 9.10614E-04-1.35757E-04
 -1       127 4.56771E-08 8.00702E-04-2.56632E-04
 -1       128-2.25664E-06 5.89733E-04-2.85123E-04
 -1       129 1.16375E-08 5.47122E-04-2.90680E-04
 -1       130 2.29611E-06 5.89742E-04-2.85101E-04
 -1       131 3.70566E-10 2.30948E-04-1.69778E-04
 -1       153 7.85139E-05 1.17980E-03-6.39471E-05
 -1       154-1.53125E-07 1.04654E-03 4.50866E-08
 -1       155-7.80178E-05 1.18032E-03 6.39928E-05
 -1       156 4.14094E-08 8.65715E-04 8.56724E-08
 -1       157-1.57690E-05 4.88013E-04-1.14379E-04
 -1       158 3.64701E-08 4.98119E-04 2.57262E-08
 -1       159 1.57327E-05 4.87873E-04 1.14404E-04
 -1       160 9.23650E-09 1.89226E-04 5.77344E-09
 -1       182 3.63504E-06 9.10364E-04 1.35794E-04
 -1       183 1.07685E-07 1.08794E-03 1.42502E-04
 -1       184-3.44873E-06 9.10334E-04 1.35766E-04
 -1       185 3.93557E-08 8.00649E-04 2.56555E-04
 -1       186-2.12070E-06 5.89807E-04 2.85124E-04
 -1       187 2.59382E-08 5.47101E-04 2.90623E-04
 -1       188 2.16800E-06 5.89809E-04 2.85115E-04
 -1       189 4.16665E-10 2.30959E-04 1.69766E-04
 -1       211 7.81104E-05 1.18041E-03 6.40122E-05
 -1       212 1.84092E-07 1.04656E-03 4.69448E-08
 -1       213-7.83469E-05 1.17967E-03-6.40702E-05
 -1       214 3.95837E-08 8.65689E-04 3.08443E-08
 -1       215-1.56996E-05 4.87861E-04 1.14364E-04
 -1       216-1.13388E-08 4.98138E-04-9.51466E-09
 -1       217 1.58052E-05 4.88034E-04-1.14402E-04
 -1       218 6.46863E-09 1.89225E-04-7.11702E-09
 -1       250 6.82056E-08 1.17472E-03-6.34812E-05
 -1       251-1.08687E-07 7.43293E-04 1.01003E-08
 -1       252 8.59579E-09 9.49241E-04 6.67972E-08
 -1       253 1.46578E-07 7.43281E-04 3.49351E-08
 -1       254 7.36513E-08 1.17455E-03 6.35615E-05
 -1       255 2.75410E-08 8.46752E-04-3.08633E-09
 -1       256 1.20684E-08 4.81481E-04-1.27600E-04
 -1       257 4.64879E-08 5.62592E-04-1.02535E-08
 -1       258 1.70655E-08 4.98893E-04-7.79574E-09
 -1       259-2.15602E-08 5.62583E-04 2.36092E-09
 -1       260 1.81516E-08 4.81548E-04 1.27601E-04
 -1       261 8.07381E-09 2.14183E-04-2.43914E-09
 -3
    1PSTEP                         5           5           1          
  100CL  105 2.50000E-02          81                     1    5           1
 -4  DISP        4    1
 -5  D1          1    2    1    0
 -5  D2          1    2    2    0
 -5  D3          1    2    3    0
 -5  ALL         1    2    0    0    1ALL
 -1         5 0.00000E+00 0.00000E+00 0.00000E+00
 -1         6 0.00000E+00 0.00000E+00 0.00000E+00
 -1         7 0.00000E+00 0.00000E+00 0.00000E+00
 -1         8 0.00000E+00 0.00000E+00 0.00000E+00
 -1        21 0.00000E+00 0.00000E+00 0.00000E+00
 -1        22 0.00000E+00 0.00000E+00 0.00000E+00
 -1        23 0.00000E+00 0.00000E+00 0.00000E+00
 -1        24 0.00000E+00 0.00000E+00 0.00000E+00
 -1        25 0.00000E+00 0.00000E+00 0.00000E+00
 -1        26 0.00000E+00 0.00000E+00 0.00000E+00
 -1        27 0.00000E+00 0.00000E+00 0.00000E+00
 -1        28 0.00000E+00 0.00000E+00 0.00000E+00
 -1        29 0.00000E+00 0.00000E+00 0.00000E+00
 -1        30 0.00000E+00 0.00000E+00 0.00000E+00
 -1        31 0.00000E+00 0.00000E+00 0.00000E+00
 -1        32 0.00000E+00 0.00000E+00 0.00000E+00
 -1        44 6.97315E-05-7.47412E-04 1.08657E-04
 -1        45 1.59716E-05-5.80320E-04 1.75154E-04
 -1        46-1.90529E-05-4.24077E-04 2.00629E-04
 -1        47 2.51767E-05-1.71644E-04 1.31871E-04
 -1        48-2.51687E-05-1.71650E-04 1.31872E-04
 -1        49 1.90868E-05-4.24072E-04 2.00620E-04
 -1        50-1.59697E-05-5.80323E-04 1.75128E-04
 -1        51-6.97459E-05-7.47287E-04 1.08628E-04
 -1        74-6.90465E-05-7.48229E-04-1.08698E-04
 -1        75-1.55173E-05-5.80771E-04-1.75152E-04
 -1        76 1.87956E-05-4.23796E-04-2.00607E-04
 -1        77-2.52950E-05-1.71509E-04-1.31866E-04
 -1        89 6.90431E-05-7.48317E-04-1.08718E-04
 -1        90 1.55143E-05-5.80796E-04-1.75179E-04
 -1        91-1.87740E-05-4.23796E-04-2.00628E-04
 -1        92 2.52986E-05-1.71508E-04-1.31872E-04
 -1        98 0.00000E+00 0.00000E+00 0.00000E+00
 -1        99 0.00000E+00 0.00000E+00 0.00000E+00
 -1       100 0.00000E+00 0.00000E+00 0.00000E+00
 -1       101 0.00000E+00 0.00000E+00 0.00000E+00
 -1       102 0.00000E+00 0.00000E+00 0.00000E+00
 -1       124-2.35499E-06-6.86856E-04 1.02383E-04
 -1       125-1.00490E-08-8.20788E-04 1.07409E-04
 -1       126 2.36752E-06-6.86888E-04 1.02393E-04
 -1       127 1.31760E-08-6.04071E-04 1.93614E-04
 -1       128 1.59778E-06-4.45281E-04 2.15184E-04
 -1       129 4.78637E-09-4.13057E-04 2.19261E-04
 -1       130-1.58379E-06-4.45290E-04 2.15189E-04
 -1       131 4.25483E-09-1.74389E-04 1.28176E-04
 -1       153-5.79621E-05-8.90107E-04 4.82487E-05
 -1       154 1.28671E-07-7.87724E-04-1.57647E-08
 -1       155 5.77230E-05-8.90206E-04-4.82701E-05
 -1       156-1.97122E-08-6.53418E-04-3.87224E-08
 -1       157 1.16269E-05-3.68082E-04 8.63875E-05
 -1       158 1.95879E-08-3.75722E-04-1.55022E-08
 -1       159-1.15662E-05-3.68021E-04-8.63748E-05
 -1       160 6.41636E-09-1.42941E-04-2.44893E-09
 -1       182-2.30257E-06-6.86573E-04-1.02377E-04
 -1       183-6.99714E-09-8.21197E-04-1.07404E-04
 -1       184 2.32188E-06-6.86582E-04-1.02400E-04
 -1       185 4.84249E-09-6.04095E-04-1.93554E-04
 -1       186 1.52733E-06-4.45355E-04-2.15194E-04
 -1       187 1.33098E-09-4.13020E-04-2.19227E-04
 -1       188-1.52274E-06-4.45363E-04-2.15202E-04
 -1       189 2.26766E-09-1.74377E-04-1.28160E-04
 -1       211-5.76911E-05-8.90288E-04-4.83033E-05
 -1       212-9.60704E-08-7.87739E-04-2.89441E-08
 -1       213 5.79842E-05-8.90033E-04 4.82639E-05
 -1       214 5.28493E-08-6.53409E-04-4.06025E-08
 -1       215 1.15767E-05-3.68020E-04-8.63856E-05
 -1       216-1.45991E-08-3.75735E-04-2.54822E-08
 -1       217-1.16099E-05-3.68092E-04 8.63707E-05
 -1       218-2.66056E-09-1.42943E-04-9.14160E-09
 -1       250 1.09376E-08-8.87070E-04 4.79136E-05
 -1       251-5.56926E-08-5.61021E-04-3.31931E-08
 -1       252 5.02503E-08-7.17145E-04-1.30443E-08
 -1       253 1.24582E-07-5.61005E-04-2.16987E-08
 -1       254 1.20963E-08-8.87325E-04-4.78986E-05
 -1       255 1.54290E-08-6.38801E-04-2.54424E-09
 -1       256 8.47405E-09-3.63580E-04 9.62315E-05
 -1       257 5.72973E-09-4.24484E-04 2.52482E-09
 -1       258 7.32259E-09-3.76841E-04-9.77031E-10
 -1       259 3.91086E-09-4.24479E-04 5.13605E-09
 -1       260 6.69297E-09-3.63546E-04-9.62434E-05
 -1       261-1.33089E-09-1.61660E-04-2.62609E-09
 -3
    1PSTEP                         6           6           1          
  100CL  106 3.00000E-02          81                     1    6           1
 -4  DISP        4    1
 -5  D1          1    2    1    0
 -5  D2          1    2    2    0
 -5  D3          1    2    3    0
 -5  ALL         1    2    0    0    1ALL
 -1         5 0.00000E+00 0.00000E+00 0.00000E+00
 -1         6 0.00000E+00 0.00000E+00 0.00000E+00
 -1         7 0.00000E+00 0.00000E+00 0.00000E+00
 -1         8 0.00000E+00 0.00000E+00 0.00000E+00
 -1        21 0.00000E+00 0.00000E+00 0.00000E+00
 -1        22 0.00000E+00 0.00000E+00 0.00000E+00
 -1        23 0.00000E+00 0.00000E+00 0.00000E+00
 -1        24 0.00000E+00 0.00000E+00 0.00000E+00
 -1        25 0.00000E+00 0.00000E+00 0.00000E+00
 -1        26 0.00000E+00 0.00000E+00 0.00000E+00
 -1        27 0.00000E+00 0.00000E+00 0.00000E+00
 -1        28 0.00000E+00 0.00000E+00 0.00000E+00
 -1        29 0.00000E+00 0.00000E+00 0.00000E+00
 -1        30 0.00000E+00 0.00000E+00 0.00000E+00
 -1        31 0.00000E+00 0.00000E+00 0.00000E+00
 -1        32 0.00000E+00 0.00000E+00 0.00000E+00
 -1        44-5.21468E-05 5.40624E-04-7.87763E-05
 -1        45-1.20721E-05 4.20219E-04-1.26940E-04
 -1        46 1.41630E-05 3.07836E-04-1.45335E-04
 -1        47-1.80628E-05 1.24687E-04-9.56596E-05