    1C
    1UUSER                                                              
    1UDATE              15.july.2018                                    
    1UTIME              20:49:54                                        
    1UHOST                                                              
    1UPGM               CalculiX                                        
    1UVERSION           Version 2.13                             
    1UCOMPILETIME       jue jun 14 00:40:39 CEST 2018                    
    1UDIR                                                               
    1UDBN                                                               
    1UMAT    1EL                                                        
    2C                           201                                     1
 -1         1 0.00000E+00 0.00000E+00 0.00000E+00
 -1         2 1.00000E+00 0.00000E+00 0.00000E+00
 -1         3 1.00000E+00 1.00000E+00 0.00000E+00
 -1         4 0.00000E+00 1.00000E+00 0.00000E+00
 -1         9 2.50000E-01 0.00000E+00 0.00000E+00
 -1        10 5.00000E-01 0.00000E+00 0.00000E+00
 -1        11 7.50000E-01 0.00000E+00 0.00000E+00
 -1        12 1.00000E+00 2.50000E-01 0.00000E+00
 -1        13 1.00000E+00 5.00000E-01 0.00000E+00
 -1        14 1.00000E+00 7.50000E-01 0.00000E+00
 -1        15 7.50000E-01 1.00000E+00 0.00000E+00
 -1        16 5.00000E-01 1.00000E+00 0.00000E+00
 -1        17 2.50000E-01 1.00000E+00 0.00000E+00
 -1        18 0.00000E+00 7.50000E-01 0.00000E+00
 -1        19 0.00000E+00 5.00000E-01 0.00000E+00
 -1        20 0.00000E+00 2.50000E-01 0.00000E+00
 -1        33 1.00000E+00 0.00000E+00 5.00000E-01
 -1        34 1.00000E+00 0.00000E+00 1.00000E+00
 -1        35 1.00000E+00 0.00000E+00 1.50000E+00
 -1        36 1.00000E+00 0.00000E+00 2.00000E+00
 -1        37 1.00000E+00 0.00000E+00 2.50000E+00
 -1        38 1.00000E+00 0.00000E+00 3.00000E+00
 -1        39 1.00000E+00 0.00000E+00 3.50000E+00
 -1        40 1.00000E+00 0.00000E+00 4.00000E+00
 -1        41 1.00000E+00 0.00000E+00 4.50000E+00
 -1        42 1.00000E+00 0.00000E+00 5.00000E+00
 -1        43 1.00000E+00 0.00000E+00 5.50000E+00
 -1        44 1.00000E+00 0.00000E+00 6.00000E+00
 -1        51 0.00000E+00 0.00000E+00 6.00000E+00
 -1        52 0.00000E+00 0.00000E+00 5.50000E+00
 -1        53 0.00000E+00 0.00000E+00 5.00000E+00
 -1        54 0.00000E+00 0.00000E+00 4.50000E+00
 -1        55 0.00000E+00 0.00000E+00 4.00000E+00
 -1        56 0.00000E+00 0.00000E+00 3.50000E+00
 -1        57 0.00000E+00 0.00000E+00 3.00000E+00
 -1        58 0.00000E+00 0.00000E+00 2.50000E+00
 -1        59 0.00000E+00 0.00000E+00 2.00000E+00
 -1        60 0.00000E+00 0.00000E+00 1.50000E+00
 -1        61 0.00000E+00 0.00000E+00 1.00000E+00
 -1        62 0.00000E+00 0.00000E+00 5.00000E-01
 -1        63 1.00000E+00 1.00000E+00 5.00000E-01
 -1        64 1.00000E+00 1.00000E+00 1.00000E+00
 -1        65 1.00000E+00 1.00000E+00 1.50000E+00
 -1        66 1.00000E+00 1.00000E+00 2.00000E+00
 -1        67 1.00000E+00 1.00000E+00 2.50000E+00
 -1        68 1.00000E+00 1.00000E+00 3.00000E+00
 -1        69 1.00000E+00 1.00000E+00 3.50000E+00
 -1        70 1.00000E+00 1.00000E+00 4.00000E+00
 -1        71 1.00000E+00 1.00000E+00 4.50000E+00
 -1        72 1.00000E+00 1.00000E+00 5.00000E+00
 -1        73 1.00000E+00 1.00000E+00 5.50000E+00
 -1        74 1.00000E+00 1.00000E+00 6.00000E+00
 -1        78 0.00000E+00 1.00000E+00 5.00000E-01
 -1        79 0.00000E+00 1.00000E+00 1.00000E+00
 -1        80 0.00000E+00 1.00000E+00 1.50000E+00
 -1        81 0.00000E+00 1.00000E+00 2.00000E+00
 -1        82 0.00000E+00 1.00000E+00 2.50000E+00
 -1        83 0.00000E+00 1.00000E+00 3.00000E+00
 -1        84 0.00000E+00 1.00000E+00 3.50000E+00
 -1        85 0.00000E+00 1.00000E+00 4.00000E+00
 -1        86 0.00000E+00 1.00000E+00 4.50000E+00
 -1        87 0.00000E+00 1.00000E+00 5.00000E+00
 -1        88 0.00000E+00 1.00000E+00 5.50000E+00
 -1        89 0.00000E+00 1.00000E+00 6.00000E+00
 -1        93 5.00000E-01 2.50000E-01 0.00000E+00
 -1        94 2.50000E-01 5.00000E-01 0.00000E+00
 -1        95 5.00000E-01 5.00000E-01 0.00000E+00
 -1        96 7.50000E-01 5.00000E-01 0.00000E+00
 -1        97 5.00000E-01 7.50000E-01 0.00000E+00
 -1       103 5.00000E-01 0.00000E+00 5.00000E-01
 -1       104 2.50000E-01 0.00000E+00 1.00000E+00
 -1       105 5.00000E-01 0.00000E+00 1.00000E+00
 -1       106 7.50000E-01 0.00000E+00 1.00000E+00
 -1       107 5.00000E-01 0.00000E+00 1.50000E+00
 -1       108 2.50000E-01 0.00000E+00 2.00000E+00
 -1       109 5.00000E-01 0.00000E+00 2.00000E+00
 -1       110 7.50000E-01 0.00000E+00 2.00000E+00
 -1       111 5.00000E-01 0.00000E+00 2.50000E+00
 -1       112 2.50000E-01 0.00000E+00 3.00000E+00
 -1       113 5.00000E-01 0.00000E+00 3.00000E+00
 -1       114 7.50000E-01 0.00000E+00 3.00000E+00
 -1       115 5.00000E-01 0.00000E+00 3.50000E+00
 -1       116 2.50000E-01 0.00000E+00 4.00000E+00
 -1       117 5.00000E-01 0.00000E+00 4.00000E+00
 -1       118 7.50000E-01 0.00000E+00 4.00000E+00
 -1       119 5.00000E-01 0.00000E+00 4.50000E+00
 -1       120 2.50000E-01 0.00000E+00 5.00000E+00
 -1       121 5.00000E-01 0.00000E+00 5.00000E+00
 -1       122 7.50000E-01 0.00000E+00 5.00000E+00
 -1       123 5.00000E-01 0.00000E+00 5.50000E+00
 -1       124 2.50000E-01 0.00000E+00 6.00000E+00
 -1       125 5.00000E-01 0.00000E+00 6.00000E+00
 -1       126 7.50000E-01 0.00000E+00 6.00000E+00
 -1       132 1.00000E+00 5.00000E-01 5.00000E-01
 -1       133 1.00000E+00 2.50000E-01 1.00000E+00
 -1       134 1.00000E+00 5.00000E-01 1.00000E+00
 -1       135 1.00000E+00 7.50000E-01 1.00000E+00
 -1       136 1.00000E+00 5.00000E-01 1.50000E+00
 -1       137 1.00000E+00 2.50000E-01 2.00000E+00
 -1       138 1.00000E+00 5.00000E-01 2.00000E+00
 -1       139 1.00000E+00 7.50000E-01 2.00000E+00
 -1       140 1.00000E+00 5.00000E-01 2.50000E+00
 -1       141 1.00000E+00 2.50000E-01 3.00000E+00
 -1       142 1.00000E+00 5.00000E-01 3.00000E+00
 -1       143 1.00000E+00 7.50000E-01 3.00000E+00
 -1       144 1.00000E+00 5.00000E-01 3.50000E+00
 -1       145 1.00000E+00 2.50000E-01 4.00000E+00
 -1       146 1.00000E+00 5.00000E-01 4.00000E+00
 -1       147 1.00000E+00 7.50000E-01 4.00000E+00
 -1       148 1.00000E+00 5.00000E-01 4.50000E+00
 -1       149 1.00000E+00 2.50000E-01 5.00000E+00
 -1       150 1.00000E+00 5.00000E-01 5.00000E+00
 -1       151 1.00000E+00 7.50000E-01 5.00000E+00
 -1       152 1.00000E+00 5.00000E-01 5.50000E+00
 -1       153 1.00000E+00 2.50000E-01 6.00000E+00
 -1       154 1.00000E+00 5.00000E-01 6.00000E+00
 -1       155 1.00000E+00 7.50000E-01 6.00000E+00
 -1       161 5.00000E-01 1.00000E+00 5.00000E-01
 -1       162 7.50000E-01 1.00000E+00 1.00000E+00
 -1       163 5.00000E-01 1.00000E+00 1.00000E+00
 -1       164 2.50000E-01 1.00000E+00 1.00000E+00
 -1       165 5.00000E-01 1.00000E+00 1.50000E+00
 -1       166 7.50000E-01 1.00000E+00 2.00000E+00
 -1       167 5.00000E-01 1.00000E+00 2.00000E+00
 -1       168 2.50000E-01 1.00000E+00 2.00000E+00
 -1       169 5.00000E-01 1.00000E+00 2.50000E+00
 -1       170 7.50000E-01 1.00000E+00 3.00000E+00
 -1       171 5.00000E-01 1.00000E+00 3.00000E+00
 -1       172 2.50000E-01 1.00000E+00 3.00000E+00
 -1       173 5.00000E-01 1.00000E+00 3.50000E+00
 -1       174 7.50000E-01 1.00000E+00 4.00000E+00
 -1       175 5.00000E-01 1.00000E+00 4.00000E+00
 -1       176 2.50000E-01 1.00000E+00 4.00000E+00
 -1       177 5.00000E-01 1.00000E+00 4.50000E+00
 -1       178 7.50000E-01 1.00000E+00 5.00000E+00
 -1       179 5.00000E-01 1.00000E+00 5.00000E+00
 -1       180 2.50000E-01 1.00000E+00 5.00000E+00
 -1       181 5.00000E-01 1.00000E+00 5.50000E+00
 -1       182 7.50000E-01 1.00000E+00 6.00000E+00
 -1       183 5.00000E-01 1.00000E+00 6.00000E+00
 -1       184 2.50000E-01 1.00000E+00 6.00000E+00
 -1       190 0.00000E+00 5.00000E-01 5.00000E-01
 -1       191 0.00000E+00 7.50000E-01 1.00000E+00
 -1       192 0.00000E+00 5.00000E-01 1.00000E+00
 -1       193 0.00000E+00 2.50000E-01 1.00000E+00
 -1       194 0.00000E+00 5.00000E-01 1.50000E+00
 -1       195 0.00000E+00 7.50000E-01 2.00000E+00
 -1       196 0.00000E+00 5.00000E-01 2.00000E+00
 -1       197 0.00000E+00 2.50000E-01 2.00000E+00
 -1       198 0.00000E+00 5.00000E-01 2.50000E+00
 -1       199 0.00000E+00 7.50000E-01 3.00000E+00
 -1       200 0.00000E+00 5.00000E-01 3.00000E+00
 -1       201 0.00000E+00 2.50000E-01 3.00000E+00
 -1       202 0.00000E+00 5.00000E-01 3.50000E+00
 -1       203 0.00000E+00 7.50000E-01 4.00000E+00
 -1       204 0.00000E+00 5.00000E-01 4.00000E+00
 -1       205 0.00000E+00 2.50000E-01 4.00000E+00
 -1       206 0.00000E+00 5.00000E-01 4.50000E+00
 -1       207 0.00000E+00 7.50000E-01 5.00000E+00
 -1       208 0.00000E+00 5.00000E-01 5.00000E+00
 -1       209 0.00000E+00 2.50000E-01 5.00000E+00
 -1       210 0.00000E+00 5.00000E-01 5.50000E+00
 -1       211 0.00000E+00 7.50000E-01 6.00000E+00
 -1       212 0.00000E+00 5.00000E-01 6.00000E+00
 -1       213 0.00000E+00 2.50000E-01 6.00000E+00
 -1       219 5.00000E-01 5.00000E-01 5.00000E-01
 -1       220 5.00000E-01 2.50000E-01 1.00000E+00
 -1       221 2.50000E-01 5.00000E-01 1.00000E+00
 -1       222 5.00000E-01 5.00000E-01 1.00000E+00
 -1       223 7.50000E-01 5.00000E-01 1.00000E+00
 -1       224 5.00000E-01 7.50000E-01 1.00000E+00
 -1       225 5.00000E-01 5.00000E-01 1.50000E+00
 -1       226 5.00000E-01 2.50000E-01 2.00000E+00
 -1       227 2.50000E-01 5.00000E-01 2.00000E+00
 -1       228 5.00000E-01 5.00000E-01 2.00000E+00
 -1       229 7.50000E-01 5.00000E-01 2.00000E+00
 -1       230 5.00000E-01 7.50000E-01 2.00000E+00
 -1       231 5.00000E-01 5.00000E-01 2.50000E+00
 -1       232 5.00000E-01 2.50000E-01 3.00000E+00
 -1       233 2.50000E-01 5.00000E-01 3.00000E+00
 -1       234 5.00000E-01 5.00000E-01 3.00000E+00
 -1       235 7.50000E-01 5.00000E-01 3.00000E+00
 -1       236 5.00000E-01 7.50000E-01 3.00000E+00
 -1       237 5.00000E-01 5.00000E-01 3.50000E+00
 -1       238 5.00000E-01 2.50000E-01 4.00000E+00
 -1       239 2.50000E-01 5.00000E-01 4.00000E+00
 -1       240 5.00000E-01 5.00000E-01 4.00000E+00
 -1       241 7.50000E-01 5.00000E-01 4.00000E+00
 -1       242 5.00000E-01 7.50000E-01 4.00000E+00
 -1       243 5.00000E-01 5.00000E-01 4.50000E+00
 -1       244 5.00000E-01 2.50000E-01 5.00000E+00
 -1       245 2.50000E-01 5.00000E-01 5.00000E+00
 -1       246 5.00000E-01 5.00000E-01 5.00000E+00
 -1       247 7.50000E-01 5.00000E-01 5.00000E+00
 -1       248 5.00000E-01 7.50000E-01 5.00000E+00
 -1       249 5.00000E-01 5.00000E-01 5.50000E+00
 -1       250 5.00000E-01 2.50000E-01 6.00000E+00
 -1       251 2.50000E-01 5.00000E-01 6.00000E+00
 -1       252 5.00000E-01 5.00000E-01 6.00000E+00
 -1       253 7.50000E-01 5.00000E-01 6.00000E+00
 -1       254 5.00000E-01 7.50000E-01 6.00000E+00
 -3
    3C                            24                                     1
 -1         1    4    0    1
 -2         1        10        95        19        61       105       222       192         9        93
 -2        94        20        62       103       219       190       104       220       221       193
 -1         2    4    0    1
 -2        10         2        13        95       105        34       134       222        11        12
 -2        96        93       103        33       132       219       106       133       223       220
 -1         3    4    0    1
 -2        19        95        16         4       192       222       163        79        94        97
 -2        17        18       190       219       161        78       221       224       164       191
 -1         4    4    0    1
 -2        95        13         3        16       222       134        64       163        96        14
 -2        15        97       219       132        63       161       223       135       162       224
 -1         5    4    0    1
 -2        61       105       222       192        59       109       228       196       104       220
 -2       221       193        60       107       225       194       108       226       227       197
 -1         6    4    0    1
 -2       105        34       134       222       109        36       138       228       106       133
 -2       223       220       107        35       136       225       110       137       229       226
 -1         7    4    0    1
 -2       192       222       163        79       196       228       167        81       221       224
 -2       164       191       194       225       165        80       227       230       168       195
 -1         8    4    0    1
 -2       222       134        64       163       228       138        66       167       223       135
 -2       162       224       225       136        65       165       229       139       166       230
 -1         9    4    0    1
 -2        59       109       228       196        57       113       234       200       108       226
 -2       227       197        58       111       231       198       112       232       233       201
 -1        10    4    0    1
 -2       109        36       138       228       113        38       142       234       110       137
 -2       229       226       111        37       140       231       114       141       235       232
 -1        11    4    0    1
 -2       196       228       167        81       200       234       171        83       227       230
 -2       168       195       198       231       169        82       233       236       172       199
 -1        12    4    0    1
 -2       228       138        66       167       234       142        68       171       229       139
 -2       166       230       231       140        67       169       235       143       170       236
 -1        13    4    0    1
 -2        57       113       234       200        55       117       240       204       112       232
 -2       233       201        56       115       237       202       116       238       239       205
 -1        14    4    0    1
 -2       113        38       142       234       117        40       146       240       114       141
 -2       235       232       115        39       144       237       118       145       241       238
 -1        15    4    0    1
 -2       200       234       171        83       204       240       175        85       233       236
 -2       172       199       202       237       173        84       239       242       176       203
 -1        16    4    0    1
 -2       234       142        68       171       240       146        70       175       235       143
 -2       170       236       237       144        69       173       241       147       174       242
 -1        17    4    0    1
 -2        55       117       240       204        53       121       246       208       116       238
 -2       239       205        54       119       243       206       120       244       245       209
 -1        18    4    0    1
 -2       117        40       146       240       121        42       150       246       118       145
 -2       241       238       119        41       148       243       122       149       247       244
 -1        19    4    0    1
 -2       204       240       175        85       208       246       179        87       239       242
 -2       176       203       206       243       177        86       245       248       180       207
 -1        20    4    0    1
 -2       240       146        70       175       246       150        72       179       241       147
 -2       174       242       243       148        71       177       247       151       178       248
 -1        21    4    0    1
 -2        53       121       246       208        51       125       252       212       120       244
 -2       245       209        52       123       249       210       124       250       251       213
 -1        22    4    0    1
 -2       121        42       150       246       125        44       154       252       122       149
 -2       247       244       123        43       152       249       126       153       253       250
 -1        23    4    0    1
 -2       208       246       179        87       212       252       183        89       245       248
 -2       180       207       210       249       181        88       251       254       184       211
 -1        24    4    0    1
 -2       246       150        72       179       252       154        74       183       247       151
 -2       178       248       249       152        73       181       253       155       182       254
 -3
    1PSTEP                         1           1           1          
  100CL  101 5.00000E-03         201                     1    1           1
 -4  DISP        4    1
 -5  D1          1    2    1    0
 -5  D2          1    2    2    0
 -5  D3          1    2    3    0
 -5  ALL         1    2    0    0    1ALL
 -1         1 0.00000E+00 0.00000E+00 0.00000E+00
 -1         2 0.00000E+00 0.00000E+00 0.00000E+00
 -1         3 0.00000E+00 0.00000E+00 0.00000E+00
 -1         4 0.00000E+00 0.00000E+00 0.00000E+00
 -1         9 0.00000E+00 0.00000E+00 0.00000E+00
 -1        10 0.00000E+00 0.00000E+00 0.00000E+00
 -1        11 0.00000E+00 0.00000E+00 0.00000E+00
 -1        12 0.00000E+00 0.00000E+00 0.00000E+00
 -1        13 0.00000E+00 0.00000E+00 0.00000E+00
 -1        14 0.00000E+00 0.00000E+00 0.00000E+00
 -1        15 0.00000E+00 0.00000E+00 0.00000E+00
 -1        16 0.00000E+00 0.00000E+00 0.00000E+00
 -1        17 0.00000E+00 0.00000E+00 0.00000E+00
 -1        18 0.00000E+00 0.00000E+00 0.00000E+00
 -1        19 0.00000E+00 0.00000E+00 0.00000E+00
 -1        20 0.00000E+00 0.00000E+00 0.00000E+00
 -1        33 6.37557E-05-1.55486E-04-2.04290E-04
 -1        34 3.12973E-05-4.81484E-04-3.74018E-04
 -1        35 2.56802E-05-9.69844E-04-4.83422E-04
 -1        36 8.05743E-06-1.52709E-03-5.40395E-04
 -1        37-5.25652E-06-2.10976E-03-5.47190E-04
 -1        38-2.09658E-05-2.69244E-03-5.18764E-04
 -1        39-4.28066E-05-3.19230E-03-3.84275E-04
 -1        40-4.38216E-05-3.54110E-03-2.09159E-04
 -1        41-4.40595E-05-3.57649E-03-6.32621E-05
 -1        42-5.82490E-05-3.73725E-03-1.49978E-04
 -1        43 6.03395E-05-3.46778E-03 8.43946E-05
 -1        44-7.08480E-05-3.46758E-03 4.47648E-04
 -1        51 7.06751E-05-3.46758E-03 4.47722E-04
 -1        52-6.05911E-05-3.46777E-03 8.44407E-05
 -1        53 5.79726E-05-3.73724E-03-1.49950E-04
 -1        54 4.37636E-05-3.57648E-03-6.32595E-05
 -1        55 4.35408E-05-3.54109E-03-2.09174E-04
 -1        56 4.25495E-05-3.19229E-03-3.84305E-04
 -1        57 2.07487E-05-2.69244E-03-5.18802E-04
 -1        58 5.08317E-06-2.10976E-03-5.47233E-04
 -1        59-8.18190E-06-1.52709E-03-5.40438E-04
 -1        60-2.57600E-05-9.69847E-04-4.83461E-04
 -1        61-3.13367E-05-4.81486E-04-3.74049E-04
 -1        62-6.37686E-05-1.55491E-04-2.04307E-04
 -1        63-6.25992E-05-1.53763E-04 2.00875E-04
 -1        64-3.11759E-05-4.80937E-04 3.66692E-04
 -1        65-2.33945E-05-9.69383E-04 4.73142E-04
 -1        66-7.90585E-06-1.53352E-03 5.26686E-04
 -1        67 4.79020E-06-2.10001E-03 5.30300E-04
 -1        68 1.41143E-05-2.69304E-03 4.93721E-04
 -1        69 5.91330E-05-3.20315E-03 3.57673E-04
 -1        70 6.75582E-05-3.63196E-03 1.83845E-04
 -1        71-8.58661E-06-3.45347E-03 3.24727E-05
 -1        72-1.10930E-04-3.47457E-03 8.15585E-05
 -1        73 2.13893E-04-3.88832E-03-1.66494E-04
 -1        74 3.52847E-04-4.41747E-03-4.93998E-04
 -1        78 6.25864E-05-1.53758E-04 2.00859E-04
 -1        79 3.11363E-05-4.80934E-04 3.66662E-04
 -1        80 2.33150E-05-9.69381E-04 4.73103E-04
 -1        81 7.78065E-06-1.53352E-03 5.26643E-04
 -1        82-4.96293E-06-2.10001E-03 5.30257E-04
 -1        83-1.43332E-05-2.69305E-03 4.93682E-04
 -1        84-5.93885E-05-3.20315E-03 3.57644E-04
 -1        85-6.78436E-05-3.63197E-03 1.83828E-04
 -1        86 8.29366E-06-3.45348E-03 3.24778E-05
 -1        87 1.10645E-04-3.47457E-03 8.15859E-05
 -1        88-2.14135E-04-3.88833E-03-1.66439E-04
 -1        89-3.53029E-04-4.41747E-03-4.93926E-04
 -1        93 0.00000E+00 0.00000E+00 0.00000E+00
 -1        94 0.00000E+00 0.00000E+00 0.00000E+00
 -1        95 0.00000E+00 0.00000E+00 0.00000E+00
 -1        96 0.00000E+00 0.00000E+00 0.00000E+00
 -1        97 0.00000E+00 0.00000E+00 0.00000E+00
 -1       103-4.90787E-09-1.81761E-04-2.00518E-04
 -1       104-1.56236E-05-5.00857E-04-3.79929E-04
 -1       105-1.96794E-08-5.03343E-04-3.82558E-04
 -1       106 1.55848E-05-5.00856E-04-3.79914E-04
 -1       107-3.90571E-08-9.79980E-04-4.86161E-04
 -1       108-3.40311E-06-1.52915E-03-5.44151E-04
 -1       109-6.27486E-08-1.53964E-03-5.43029E-04
 -1       110 3.27815E-06-1.52915E-03-5.44130E-04
 -1       111-8.65155E-08-2.10113E-03-5.51065E-04
 -1       112 7.48808E-06-2.71632E-03-5.20758E-04
 -1       113-1.10100E-07-2.70938E-03-5.22335E-04
 -1       114-7.70700E-06-2.71632E-03-5.20740E-04
 -1       115-1.28748E-07-3.15430E-03-3.92720E-04
 -1       116 3.22979E-05-3.51664E-03-2.03773E-04
 -1       117-1.44011E-07-3.63800E-03-1.82603E-04
 -1       118-3.25828E-05-3.51665E-03-2.03766E-04
 -1       119-1.47758E-07-3.55142E-03-6.60375E-05
 -1       120-5.26958E-06-3.90834E-03-1.12778E-04
 -1       121-1.46301E-07-3.76307E-03-1.17058E-04
 -1       122 4.98358E-06-3.90835E-03-1.12791E-04
 -1       123-1.22934E-07-3.47775E-03-2.54421E-05
 -1       124 1.40035E-04-2.96340E-03 4.28409E-04
 -1       125-1.03735E-07-3.57979E-03 4.47653E-04
 -1       126-1.40223E-04-2.96340E-03 4.28373E-04
 -1       132 7.05387E-07-1.18574E-04-1.58744E-06
 -1       133 1.60930E-05-4.69190E-04-1.77821E-04
 -1       134 8.55703E-07-4.73842E-04-2.85706E-06
 -1       135-1.53871E-05-4.69286E-04 1.71033E-04
 -1       136-1.88390E-07-9.52401E-04-5.55726E-06
 -1       137 4.78031E-06-1.52499E-03-2.68323E-04
 -1       138 4.94032E-07-1.51705E-03-7.33921E-06
 -1       139-3.79805E-06-1.52673E-03 2.54954E-04
 -1       140 1.56522E-06-2.12414E-03-9.13523E-06
 -1       141-1.06820E-05-2.67769E-03-2.44086E-04
 -1       142 5.19136E-06-2.68376E-03-5.06126E-06
 -1       143 1.14615E-05-2.68363E-03 2.23948E-04
 -1       144-8.79462E-06-3.21673E-03-1.26816E-05
 -1       145-1.98501E-05-3.55830E-03-1.31922E-04
 -1       146-1.24901E-05-3.46053E-03-2.48893E-05
 -1       147 1.67794E-05-3.58342E-03 1.00730E-04
 -1       148 2.62819E-05-3.67893E-03-2.37136E-05
 -1       149-3.54912E-05-3.41920E-03-4.75071E-05
 -1       150 8.14210E-05-3.44292E-03-1.85245E-06
 -1       151 3.33689E-05-3.34684E-03 4.63019E-07
 -1       152-1.23715E-04-3.71725E-03 1.22777E-05
 -1       153 7.90529E-05-3.61807E-03 1.90423E-04
 -1       154-1.10554E-04-2.48222E-03-2.08496E-05
 -1       155-8.52552E-05-3.89175E-03-2.37428E-04
 -1       161-4.92250E-09-1.80567E-04 1.96792E-04
 -1       162-1.53844E-05-5.00207E-04 3.73194E-04
 -1       163-1.95452E-08-5.00909E-04 3.75343E-04
 -1       164 1.53457E-05-5.00206E-04 3.73180E-04
 -1       165-3.91314E-08-9.80003E-04 4.76117E-04
 -1       166-3.96394E-06-1.52653E-03 5.30054E-04
 -1       167-6.23617E-08-1.53554E-03 5.32259E-04
 -1       168 3.83899E-06-1.52653E-03 5.30033E-04
 -1       169-8.67281E-08-2.10212E-03 5.30343E-04
 -1       170 7.20474E-06-2.71614E-03 5.00751E-04
 -1       171-1.09195E-07-2.67830E-03 4.96190E-04
 -1       172-7.42364E-06-2.71614E-03 5.00732E-04
 -1       173-1.29289E-07-3.17442E-03 3.68352E-04
 -1       174 3.22994E-05-3.45851E-03 1.70689E-04
 -1       175-1.41818E-07-3.55658E-03 1.72248E-04
 -1       176-3.25844E-05-3.45851E-03 1.70682E-04
 -1       177-1.49162E-07-3.51015E-03 2.14168E-05
 -1       178-4.85757E-05-4.00481E-03 7.15731E-05
 -1       179-1.40469E-07-3.57992E-03 4.65598E-05
 -1       180 4.82911E-05-4.00481E-03 7.15850E-05
 -1       181-1.27962E-07-3.67087E-03-6.26880E-05
 -1       182 1.34555E-04-2.56142E-03-4.69875E-04
 -1       183-8.34540E-08-4.33607E-03-4.76002E-04
 -1       184-1.34729E-04-2.56142E-03-4.69828E-04
 -1       190-7.20477E-07-1.18574E-04-1.60380E-06
 -1       191 1.53462E-05-4.69285E-04 1.71003E-04
 -1       192-8.96744E-07-4.73842E-04-2.88789E-06
 -1       193-1.61338E-05-4.69192E-04-1.77851E-04
 -1       194 1.07772E-07-9.52401E-04-5.59658E-06
 -1       195 3.67298E-06-1.52673E-03 2.54910E-04
 -1       196-6.18883E-07-1.51705E-03-7.38293E-06
 -1       197-4.90501E-06-1.52499E-03-2.68366E-04
 -1       198-1.73814E-06-2.12414E-03-9.17857E-06
 -1       199-1.16787E-05-2.68363E-03 2.23909E-04
 -1       200-5.40744E-06-2.68376E-03-5.09944E-06
 -1       201 1.04658E-05-2.67769E-03-2.44125E-04
 -1       202 8.53951E-06-3.21672E-03-1.27113E-05
 -1       203-1.70609E-05-3.58343E-03 1.00714E-04
 -1       204 1.22116E-05-3.46054E-03-2.49054E-05
 -1       205 1.95707E-05-3.55830E-03-1.31937E-04
 -1       206-2.65752E-05-3.67893E-03-2.37099E-05
 -1       207-3.36469E-05-3.34685E-03 4.91013E-07
 -1       208-8.16944E-05-3.44293E-03-1.82098E-06
 -1       209 3.52187E-05-3.41920E-03-4.74775E-05
 -1       210 1.23471E-04-3.71724E-03 1.23263E-05
 -1       211 8.50774E-05-3.89175E-03-2.37346E-04
 -1       212 1.10382E-04-2.48225E-03-2.07733E-05
 -1       213-7.92304E-05-3.61808E-03 1.90495E-04
 -1       219-5.94383E-09-1.44306E-04-1.42965E-06
 -1       220-2.03452E-08-4.88980E-04-1.83471E-04
 -1       221-4.36686E-07-4.90501E-04-3.64095E-06
 -1       222-2.04092E-08-4.91935E-04-3.79949E-06
 -1       223 3.96411E-07-4.90500E-04-3.62625E-06
 -1       224-2.02774E-08-4.87630E-04 1.76518E-04
 -1       225-3.95361E-08-9.64509E-04-5.12174E-06
 -1       226-6.28231E-08-1.53256E-03-2.72618E-04
 -1       227-4.10713E-07-1.51840E-03-6.87020E-06
 -1       228-6.28611E-08-1.52039E-03-8.42962E-06
 -1       229 2.85433E-07-1.51840E-03-6.84897E-06
 -1       230-6.26301E-08-1.53083E-03 2.57415E-04
 -1       231-8.62969E-08-2.12250E-03-7.48511E-06
 -1       232-1.09662E-07-2.68547E-03-2.49050E-04
 -1       233-2.37472E-06-2.68122E-03-1.27134E-05
 -1       234-1.09536E-07-2.67859E-03-1.39924E-05
 -1       235 2.15691E-06-2.68122E-03-1.26946E-05
 -1       236-1.09219E-07-2.66868E-03 2.26859E-04
 -1       237-1.27922E-07-3.18896E-03-9.32723E-06
 -1       238-1.43277E-07-3.60820E-03-1.23815E-04
 -1       239 5.99406E-06-3.44957E-03-1.43402E-05
 -1       240-1.42883E-07-3.47445E-03-1.99153E-05
 -1       241-6.27678E-06-3.44957E-03-1.43338E-05
 -1       242-1.42125E-07-3.56937E-03 8.80509E-05
 -1       243-1.45933E-07-3.65112E-03-2.13249E-05
 -1       244-1.44350E-07-3.51587E-03-2.00177E-05
 -1       245-3.49557E-05-3.60623E-03-2.62517E-05
 -1       246-1.44464E-07-3.64892E-03-1.97933E-05
 -1       247 3.46732E-05-3.60623E-03-2.62639E-05
 -1       248-1.41759E-07-3.43813E-03-1.03987E-05
 -1       249-1.22537E-07-3.51847E-03-1.36685E-05
 -1       250-1.06707E-07-4.08987E-03 1.74120E-04
 -1       251 3.74452E-05-2.56871E-03-1.04553E-05
 -1       252-1.06260E-07-3.12867E-03-1.60073E-05
 -1       253-3.76367E-05-2.56870E-03-1.05097E-05
 -1       254-9.49626E-08-4.39562E-03-2.54064E-04
 -3
    1PSTEP                         2           2           1          
  100CL  102 1.00000E-02         201                     1    2           1
 -4  DISP        4    1
 -5  D1          1    2    1    0
 -5  D2          1    2    2    0
 -5  D3          1    2    3    0
 -5  ALL         1    2    0    0    1ALL
 -1         1 0.00000E+00 0.00000E+00 0.00000E+00
 -1         2 0.00000E+00 0.00000E+00 0.00000E+00
 -1         3 0.00000E+00 0.00000E+00 0.00000E+00
 -1         4 0.00000E+00 0.00000E+00 0.00000E+00
 -1         9 0.00000E+00 0.00000E+00 0.00000E+00
 -1        10 0.00000E+00 0.00000E+00 0.00000E+00
 -1        11 0.00000E+00 0.00000E+00 0.00000E+00
 -1        12 0.00000E+00 0.00000E+00 0.00000E+00
 -1        13 0.00000E+00 0.00000E+00 0.00000E+00
 -1        14 0.00000E+00 0.00000E+00 0.00000E+00
 -1        15 0.00000E+00 0.00000E+00 0.00000E+00
 -1        16 0.00000E+00 0.00000E+00 0.00000E+00
 -1        17 0.00000E+00 0.00000E+00 0.00000E+00
 -1        18 0.00000E+00 0.00000E+00 0.00000E+00
 -1        19 0.00000E+00 0.00000E+00 0.00000E+00
 -1        20 0.00000E+00 0.00000E+00 0.00000E+00
 -1        33-3.19948E-05 7.91428E-05 1.02979E-04
 -1        34-1.54995E-05 2.44743E-04 1.87693E-04
 -1        35-1.27355E-05 4.92455E-04 2.42664E-04
 -1        36-4.49066E-06 7.74197E-04 2.69996E-04
 -1        37 4.18703E-06 1.07141E-03 2.71768E-04
 -1        38 1.32464E-05 1.36701E-03 2.50257E-04
 -1        39 2.10825E-05 1.60883E-03 1.85164E-04
 -1        40 1.47596E-05 1.78395E-03 9.24574E-05
 -1        41 3.34709E-05 1.81489E-03 2.06219E-05
 -1        42 4.08147E-05 1.86663E-03 1.13932E-05
 -1        43-3.28121E-05 1.70429E-03-7.82514E-05
 -1        44-1.40416E-04 1.62068E-03-2.33765E-04
 -1        51 1.40374E-04 1.62055E-03-2.33689E-04
 -1        52 3.27859E-05 1.70431E-03-7.81886E-05
 -1        53-4.09121E-05 1.86658E-03 1.13649E-05
 -1        54-3.35278E-05 1.81491E-03 2.06241E-05
 -1        55-1.48441E-05 1.78393E-03 9.24534E-05
 -1        56-2.11420E-05 1.60884E-03 1.85161E-04
 -1        57-1.33083E-05 1.36701E-03 2.50244E-04
 -1        58-4.22920E-06 1.07141E-03 2.71758E-04
 -1        59 4.45568E-06 7.74193E-04 2.69984E-04
 -1        60 1.27156E-05 4.92455E-04 2.42654E-04
 -1        61 1.54882E-05 2.44740E-04 1.87684E-04
 -1        62 3.19917E-05 7.91416E-05 1.02975E-04
 -1        63 3.19779E-05 7.91409E-05-1.02957E-04
 -1        64 1.54769E-05 2.44751E-04-1.87647E-04
 -1        65 1.27331E-05 4.92419E-04-2.42599E-04
 -1        66 4.50279E-06 7.74168E-04-2.69909E-04
 -1        67-4.35336E-06 1.07150E-03-2.71668E-04
 -1        68-1.35276E-05 1.36729E-03-2.50129E-04
 -1        69-2.07061E-05 1.60834E-03-1.85020E-04
 -1        70-1.40379E-05 1.78331E-03-9.22964E-05
 -1        71-3.52923E-05 1.81648E-03-2.04347E-05
 -1        72-4.50787E-05 1.87067E-03-1.11378E-05
 -1        73 4.02853E-05 1.69703E-03 7.85170E-05
 -1        74 1.53928E-04 1.60822E-03 2.33989E-04
 -1        78-3.19817E-05 7.91423E-05-1.02962E-04