
 displacements (vx,vy,vz) for set NALL and time  0.5000000E-02

         5  0.000000E+00  0.000000E+00  0.000000E+00
         6  0.000000E+00  0.000000E+00  0.000000E+00
         7  0.000000E+00  0.000000E+00  0.000000E+00
         8  0.000000E+00  0.000000E+00  0.000000E+00
        21  0.000000E+00  0.000000E+00  0.000000E+00
        22  0.000000E+00  0.000000E+00  0.000000E+00
        23  0.000000E+00  0.000000E+00  0.000000E+00
        24  0.000000E+00  0.000000E+00  0.000000E+00
        25  0.000000E+00  0.000000E+00  0.000000E+00
        26  0.000000E+00  0.000000E+00  0.000000E+00
        27  0.000000E+00  0.000000E+00  0.000000E+00
        28  0.000000E+00  0.000000E+00  0.000000E+00
        29  0.000000E+00  0.000000E+00  0.000000E+00
        30  0.000000E+00  0.000000E+00  0.000000E+00
        31  0.000000E+00  0.000000E+00  0.000000E+00
        32  0.000000E+00  0.000000E+00  0.000000E+00
        44 -5.929370E-05 -3.463748E-03  4.484557E-04
        45  5.695485E-05 -2.561314E-03  7.850628E-04
        46 -4.798067E-05 -1.796171E-03  9.490710E-04
        47  1.309468E-04 -6.751109E-04  5.431644E-04
        48 -1.309532E-04 -6.751135E-04  5.431733E-04
        49  4.797820E-05 -1.796171E-03  9.490823E-04
        50 -5.699542E-05 -2.561311E-03  7.850666E-04
        51  5.932253E-05 -3.463762E-03  4.484315E-04
        74  3.167144E-04 -4.408619E-03 -4.944703E-04
        75  1.900793E-04 -2.970521E-03 -7.843870E-04
        76 -1.097261E-04 -1.598446E-03 -9.499351E-04
        77 -2.075829E-04 -5.270846E-04 -5.581919E-04
        89 -3.166955E-04 -4.408597E-03 -4.944757E-04
        90 -1.901205E-04 -2.970522E-03 -7.843760E-04
        91  1.097238E-04 -1.598446E-03 -9.499234E-04
        92  2.075764E-04 -5.270819E-04 -5.581822E-04
        98  0.000000E+00  0.000000E+00  0.000000E+00
        99  0.000000E+00  0.000000E+00  0.000000E+00
       100  0.000000E+00  0.000000E+00  0.000000E+00
       101  0.000000E+00  0.000000E+00  0.000000E+00
       102  0.000000E+00  0.000000E+00  0.000000E+00
       124  1.504746E-04 -2.965877E-03  4.295005E-04
       125 -2.326780E-08 -3.589368E-03  4.487278E-04
       126 -1.504873E-04 -2.965868E-03  4.294795E-04
       127 -6.287777E-09 -2.562744E-03  9.036028E-04
       128 -9.350771E-06 -1.952693E-03  9.480840E-04
       129 -1.275238E-08 -1.814062E-03  9.414411E-04
       130  9.337406E-06 -1.952693E-03  9.480863E-04
       131 -1.313433E-09 -7.363647E-04  5.563243E-04
       153  6.953573E-05 -3.635909E-03  1.910036E-04
       154 -1.203653E-04 -2.502166E-03 -2.093692E-05
       155 -6.471508E-05 -3.888158E-03 -2.379829E-04
       156 -1.200127E-04 -2.789487E-03 -6.451636E-05
       157 -2.058314E-05 -1.508773E-03  3.922746E-04
       158  8.830817E-05 -1.566653E-03 -2.936299E-05
       159  4.666982E-05 -1.475488E-03 -4.110175E-04
       160  3.974741E-05 -6.564996E-04  4.877775E-06
       182  1.151740E-04 -2.563356E-03 -4.710830E-04
       183 -2.983916E-08 -4.354499E-03 -4.762803E-04
       184 -1.151972E-04 -2.563340E-03 -4.710509E-04
       185 -4.538287E-09 -2.832978E-03 -8.743574E-04
       186 -4.415811E-05 -2.162018E-03 -9.825322E-04
       187 -1.382550E-08 -1.831656E-03 -9.635911E-04
       188  4.414372E-05 -2.162019E-03 -9.825342E-04
       189 -1.193296E-09 -7.199656E-04 -5.644074E-04
       211  6.470474E-05 -3.888143E-03 -2.379814E-04
       212  1.203295E-04 -2.502159E-03 -2.091660E-05
       213 -6.953850E-05 -3.635914E-03  1.909929E-04
       214  1.199882E-04 -2.789489E-03 -6.450403E-05
       215 -4.667853E-05 -1.475488E-03 -4.110054E-04
       216 -8.832471E-05 -1.566652E-03 -2.935374E-05
       217  2.057378E-05 -1.508772E-03  3.922867E-04
       218 -3.975303E-05 -6.564997E-04  4.883047E-06
       250 -2.319775E-08 -4.080695E-03  1.745905E-04
       251  3.029759E-05 -2.571526E-03 -1.069080E-05
       252 -2.214132E-08 -3.124418E-03 -1.641361E-05
       253 -3.033764E-05 -2.571531E-03 -1.070209E-05
       254 -2.766550E-08 -4.412478E-03 -2.538794E-04
       255 -1.150567E-08 -2.599010E-03 -3.198517E-05
       256 -1.049201E-08 -1.607541E-03  3.956062E-04
       257 -4.107571E-05 -1.749302E-03 -1.200095E-05
       258 -8.145106E-09 -1.790326E-03 -1.450077E-05
       259  4.105949E-05 -1.749302E-03 -1.200525E-05
       260 -1.072756E-08 -1.622604E-03 -4.183350E-04
       261 -2.392555E-09 -7.169694E-04 -1.943560E-06

 forces (fx,fy,fz) for set NALL and time  0.5000000E-02

         5  2.310061E+00 -4.178439E+00 -1.104592E+00
         6 -2.310133E+00 -4.178381E+00 -1.104682E+00
         7  3.475498E+00  1.072105E+00  1.268616E+00
         8 -3.475588E+00  1.072180E+00  1.268717E+00
        21 -2.809613E+00  5.574194E+00 -1.789534E+01
        22  9.294542E-05 -9.873220E+00 -6.611617E-01
        23  2.809546E+00  5.574191E+00 -1.789506E+01
        24 -4.630542E+00  1.711540E+01 -1.022118E+01
        25  8.571360E-01 -1.153098E+01 -4.587513E-01
        26  2.144725E+00  1.343894E+01  1.050571E+01
        27 -1.847340E+00 -4.363870E-01  1.759950E+01
        28  9.470862E-05 -1.618248E+00  1.779454E+00
        29  1.847265E+00 -4.363909E-01  1.759923E+01
        30 -2.144821E+00  1.343888E+01  1.050566E+01
        31 -8.570781E-01 -1.153098E+01 -4.587220E-01
        32  4.630442E+00  1.711547E+01 -1.022123E+01
        44  2.016195E+00  5.188625E+01  1.432893E+00
        45 -7.131296E-06 -6.080380E-01  1.525634E-01
        46  5.450889E-06  1.541473E+00 -4.634098E-01
        47 -1.911851E-06 -1.167011E+00  5.403038E-01
        48  2.089468E-06 -1.167010E+00  5.403044E-01
        49 -4.880345E-06  1.541474E+00 -4.634100E-01
        50  5.313661E-06 -6.080403E-01  1.525630E-01
        51 -2.015936E+00  5.188637E+01  1.432537E+00
        74 -7.481455E+00  1.766507E+01 -9.884478E-01
        75  6.456093E-07 -6.081234E-01 -1.525356E-01
        76 -1.637872E-06  1.541534E+00  4.634018E-01
        77  4.014530E-06 -1.167024E+00 -5.403001E-01
        89  7.481734E+00  1.766493E+01 -9.888452E-01
        90 -3.467957E-06 -6.081198E-01 -1.525355E-01
        91  2.119433E-06  1.541534E+00  4.634019E-01
        92 -3.430542E-06 -1.167026E+00 -5.403000E-01
        98  1.587986E-04  3.794659E+01 -1.716973E+01
        99 -2.304520E-01 -7.603447E+00  6.521681E-01
       100  1.579542E-06 -2.288258E+01 -3.756788E-01
       101  2.303778E-01 -7.603406E+00  6.524881E-01
       102  1.964039E-04  3.527819E+01  1.648478E+01
       124  1.720207E+01  1.975922E+01 -6.112330E-01
       125 -3.540954E-05  1.113314E+02  2.961789E+00
       126 -1.720213E+01  1.975943E+01 -6.119958E-01
       127  4.398424E-07 -1.216077E+00  3.051177E-01
       128  4.557338E-06 -2.615777E+00  9.358650E-01
       129 -1.977994E-07  3.082946E+00 -9.268166E-01
       130 -5.016803E-06 -2.615776E+00  9.358641E-01
       131  5.295608E-07 -2.334021E+00  1.080606E+00
       153  1.153371E+01 -1.327026E+02 -2.296976E+00
       154 -2.899973E+00  9.864692E+01  4.275601E-01
       155  4.099824E+00 -1.083601E+02  1.413556E+00
       156 -1.171619E-05 -1.216153E+00 -2.478955E-05
       157 -7.607182E-06 -2.615785E+00  7.018891E-01
       158  5.803691E-06  3.083006E+00  1.159795E-05
       159 -1.389651E-07 -2.615848E+00 -7.018921E-01
       160 -1.208053E-06 -2.334038E+00 -3.363790E-06
       182  8.170317E+00  6.526423E+01  4.150827E-01
       183 -6.839946E-05  5.169014E+01 -1.391620E+00
       184 -8.170407E+00  6.526451E+01  4.160371E-01
       185  1.291351E-06 -6.742573E+00 -3.050653E-01
       186  2.521120E-06 -8.142179E+00 -9.358385E-01
       187 -4.799375E-07 -2.443243E+00  9.268048E-01
       188 -2.878678E-06 -8.142177E+00 -9.358381E-01
       189  4.008579E-07 -7.860373E+00 -1.080595E+00
       211 -4.099626E+00 -1.083599E+02  1.413583E+00
       212  2.899997E+00  9.864696E+01  4.274201E-01
       213 -1.153343E+01 -1.327027E+02 -2.297162E+00
       214  9.290976E-06 -1.216154E+00 -2.298063E-05
       215 -1.520312E-06 -2.615846E+00 -7.018923E-01
       216 -4.644113E-06  3.083005E+00  1.076122E-05
       217  6.236492E-06 -2.615787E+00  7.018893E-01
       218  5.972327E-07 -2.334038E+00 -4.638784E-06
       250 -2.264777E-04 -2.935042E+02 -5.842465E+00
       251  5.220794E+00  8.823973E+01  5.372029E-01
       252  9.033495E-06  2.054887E+02  1.277817E+00
       253 -5.221033E+00  8.823958E+01  5.363864E-01
       254 -3.622576E-04 -2.683353E+02  1.586680E+00
       255  3.291450E-06 -2.432314E+00 -6.072734E-05
       256  8.448451E-07 -5.231571E+00  1.403768E+00
       257  7.240956E-06 -5.231633E+00 -2.667987E-05
       258 -6.528309E-07  6.166016E+00  2.392870E-05
       259 -6.920868E-06 -5.231632E+00 -2.695524E-05
       260  1.693373E-06 -5.231707E+00 -1.403780E+00
       261 -4.982040E-07 -4.668080E+00 -9.360837E-06

 displacements (vx,vy,vz) for set NALL and time  0.1000000E-01

         5  0.000000E+00  0.000000E+00  0.000000E+00
         6  0.000000E+00  0.000000E+00  0.000000E+00
         7  0.000000E+00  0.000000E+00  0.000000E+00
         8  0.000000E+00  0.000000E+00  0.000000E+00
        21  0.000000E+00  0.000000E+00  0.000000E+00
        22  0.000000E+00  0.000000E+00  0.000000E+00
        23  0.000000E+00  0.000000E+00  0.000000E+00
        24  0.000000E+00  0.000000E+00  0.000000E+00
        25  0.000000E+00  0.000000E+00  0.000000E+00
        26  0.000000E+00  0.000000E+00  0.000000E+00
        27  0.000000E+00  0.000000E+00  0.000000E+00
        28  0.000000E+00  0.000000E+00  0.000000E+00
        29  0.000000E+00  0.000000E+00  0.000000E+00
        30  0.000000E+00  0.000000E+00  0.000000E+00
        31  0.000000E+00  0.000000E+00  0.000000E+00
        32  0.000000E+00  0.000000E+00  0.000000E+00
        44 -1.482853E-04  1.612251E-03 -2.339108E-04
        45 -3.387903E-05  1.251030E-03 -3.772444E-04
        46  4.060907E-05  9.127756E-04 -4.324350E-04
        47 -5.444095E-05  3.692457E-04 -2.840220E-04
        48  5.443908E-05  3.692308E-04 -2.839486E-04
        49 -4.053872E-05  9.127326E-04 -4.323416E-04
        50  3.363954E-05  1.251105E-03 -3.773329E-04
        51  1.480448E-04  1.612592E-03 -2.339689E-04
        74  1.508367E-04  1.613451E-03  2.342088E-04
        75  3.475276E-05  1.250861E-03  3.773648E-04
        76 -4.129433E-05  9.132382E-04  4.323021E-04
        77  5.412909E-05  3.691647E-04  2.840080E-04
        89 -1.510815E-04  1.613123E-03  2.341752E-04
        90 -3.499209E-05  1.250788E-03  3.772894E-04
        91  4.136806E-05  9.132807E-04  4.323890E-04
        92 -5.413148E-05  3.691813E-04  2.840808E-04
        98  0.000000E+00  0.000000E+00  0.000000E+00
        99  0.000000E+00  0.000000E+00  0.000000E+00
       100  0.000000E+00  0.000000E+00  0.000000E+00
       101  0.000000E+00  0.000000E+00  0.000000E+00
       102  0.000000E+00  0.000000E+00  0.000000E+00
       124  4.348630E-06  1.478363E-03 -2.204227E-04
       125 -2.536041E-07  1.770080E-03 -2.313415E-04
       126 -4.654804E-06  1.478351E-03 -2.205462E-04
       127 -7.347610E-09  1.301596E-03 -4.170550E-04
       128 -3.308128E-06  9.594771E-04 -4.635252E-04
       129 -6.547877E-08  8.893527E-04 -4.721258E-04
       130  3.259108E-06  9.594675E-04 -4.635328E-04
       131  1.119851E-08  3.753606E-04 -2.760316E-04
       153  1.233136E-04  1.916075E-03 -1.039661E-04
       154  1.359957E-06  1.691514E-03  2.989010E-07
       155 -1.249403E-04  1.918110E-03  1.040290E-04
       156  5.309990E-07  1.406192E-03  5.645478E-08
       157 -2.465520E-05  7.927695E-04 -1.860508E-04
       158 -4.578121E-07  8.099862E-04  1.764001E-08
       159  2.482034E-05  7.927046E-04  1.861646E-04
       160 -2.067423E-07  3.083849E-04 -4.851773E-08
       182  4.128357E-06  1.477723E-03  2.205953E-04
       183 -2.651948E-07  1.772554E-03  2.315372E-04
       184 -4.446499E-06  1.477722E-03  2.207210E-04
       185 -4.712363E-09  1.303239E-03  4.174406E-04
       186 -3.299450E-06  9.602183E-04  4.636734E-04
       187 -6.746439E-08  8.892770E-04  4.724313E-04
       188  3.249985E-06  9.602076E-04  4.636805E-04
       189  1.179318E-08  3.752474E-04  2.761054E-04
       211  1.248229E-04  1.917848E-03  1.041647E-04
       212 -1.566983E-06  1.691529E-03  6.314748E-08
       213 -1.234261E-04  1.916357E-03 -1.038296E-04
       214 -5.189952E-07  1.406192E-03  9.981053E-08
       215 -2.485978E-05  7.927472E-04  1.861739E-04
       216  3.488679E-07  8.099888E-04  7.808077E-08
       217  2.461338E-05  7.927294E-04 -1.860414E-04
       218  2.018659E-07  3.083849E-04 -4.682852E-08
       250 -7.131449E-08  1.910732E-03 -1.030923E-04
       251 -1.037227E-06  1.210124E-03 -5.021024E-09
       252  1.612570E-07  1.541797E-03  7.032293E-08
       253  1.061855E-06  1.210115E-03  2.652887E-07
       254 -7.891505E-08  1.910770E-03  1.034696E-04
       255 -6.361761E-08  1.374590E-03  1.530560E-07
       256 -1.374169E-08  7.833669E-04 -2.072365E-04
       257  2.921486E-07  9.137738E-04  9.434201E-08
       258  2.866446E-08  8.127821E-04  7.640323E-08
       259 -3.046951E-07  9.137728E-04  2.743112E-08
       260 -1.440084E-08  7.835861E-04  2.073369E-04
       261 -2.045122E-08  3.485849E-04  1.438006E-08

 forces (fx,fy,fz) for set NALL and time  0.1000000E-01

         5 -1.656864E+00  3.759918E-01  9.240177E-01
         6  1.656942E+00  3.758831E-01  9.227145E-01
         7 -1.681003E+00  3.664291E-01 -9.253755E-01
         8  1.681026E+00  3.663760E-01 -9.241348E-01
        21  1.022367E+00 -1.640624E+00  8.955895E+00
        22  1.523835E-03  7.285162E-01  1.412827E+00
        23 -1.023763E+00 -1.641792E+00  8.956646E+00
        24  1.178725E+00 -5.885309E+00  4.720070E+00
        25 -1.348114E-02  2.449149E+00 -1.897285E-03
        26 -1.153144E+00 -5.892606E+00 -4.716461E+00
        27  1.042383E+00 -1.620949E+00 -8.956315E+00
        28  1.530398E-03  7.043753E-01 -1.412072E+00
        29 -1.043784E+00 -1.622128E+00 -8.957004E+00
        30  1.153127E+00 -5.891360E+00 -4.718439E+00
        31  1.447791E-02  2.449149E+00 -1.208949E-03
        32 -1.178738E+00 -5.886566E+00  4.718003E+00
        44 -6.063418E+00 -1.505236E+01 -7.485702E-01
        45  6.107624E-06  5.208353E-01 -1.306833E-01
        46 -4.673493E-06 -1.320401E+00  3.969495E-01
        47  1.646896E-06  9.996432E-01 -4.628157E-01
        48 -1.799041E-06  9.996421E-01 -4.628162E-01
        49  4.184773E-06 -1.320402E+00  3.969497E-01
        50 -4.550666E-06  5.208373E-01 -1.306830E-01
        51  6.061894E+00 -1.505431E+01 -7.542231E-01
        74  6.221924E+00 -1.500381E+01  7.543014E-01
        75 -5.475370E-07  5.209086E-01  1.306595E-01
        76  1.404561E-06 -1.320454E+00 -3.969427E-01
        77 -3.448528E-06  9.996540E-01  4.628125E-01
        89 -6.223321E+00 -1.500199E+01  7.492562E-01
        90  2.965116E-06  5.209054E-01  1.306595E-01
        91 -1.817059E-06 -1.320453E+00 -3.969428E-01
        92  2.948293E-06  9.996559E-01  4.628125E-01
        98 -1.458005E-04 -1.289415E+01  8.224836E+00
        99 -2.154662E-03  3.917068E+00 -1.304073E-03
       100 -2.066177E-03  5.321151E+00  1.689529E-03
       101  3.240868E-03  3.917143E+00 -1.595485E-03
       102 -7.364345E-05 -1.288969E+01 -8.224653E+00
       124 -6.361588E+00 -1.703115E+01  4.672477E-01
       125 -4.191841E-03 -3.099961E+01 -1.395481E+00
       126  6.365669E+00 -1.702717E+01  4.607848E-01
       127 -3.767614E-07  1.041671E+00 -2.613589E-01
       128 -3.909437E-06  2.240633E+00 -8.016472E-01
       129  1.694318E-07 -2.640803E+00  7.938964E-01
       130  4.303007E-06  2.240632E+00 -8.016464E-01
       131 -4.536139E-07  1.999285E+00 -9.256298E-01
       153  4.502001E+00  5.167672E+01  1.163190E+00
       154  9.720708E-02 -3.305628E+01  5.543379E-03
       155 -4.689581E+00  5.174309E+01 -1.174833E+00
       156  1.002985E-05  1.041737E+00  2.122531E-05
       157  6.521863E-06  2.240640E+00 -6.012271E-01
       158 -4.970957E-06 -2.640853E+00 -9.928996E-06
       159  1.167822E-07  2.240694E+00  6.012297E-01
       160  1.038711E-06  1.999300E+00  2.881445E-06
       182 -6.496143E+00 -1.716893E+01 -4.691757E-01
       183 -4.352194E-03 -3.084761E+01  1.392889E+00
       184  6.500155E+00 -1.716485E+01 -4.634094E-01
       185 -1.106150E-06  1.069527E+00  2.613140E-01
       186 -2.162719E-06  2.268408E+00  8.016245E-01
       187  4.111069E-07 -2.613210E+00 -7.938863E-01
       188  2.468996E-06  2.268406E+00  8.016241E-01
       189 -3.433689E-07  2.027017E+00  9.256210E-01
       211  4.689171E+00  5.173141E+01 -1.164523E+00
       212 -9.553783E-02 -3.305612E+01 -4.612874E-03
       213 -4.502338E+00  5.168849E+01  1.174293E+00
       214 -7.952457E-06  1.041737E+00  1.967582E-05
       215  1.304528E-06  2.240692E+00  6.012298E-01
       216  3.977681E-06 -2.640853E+00 -9.212264E-06
       217 -5.347752E-06  2.240641E+00 -6.012273E-01
       218 -5.154924E-07  1.999300E+00  3.973586E-06
       250 -6.123024E-05  1.048727E+02  2.311942E+00
       251  5.360408E-03 -4.730434E+01 -4.547698E-03
       252  7.466336E-03 -6.975462E+01 -5.059396E-03
       253 -9.902508E-03 -4.730482E+01  7.034928E-03
       254 -5.413877E-04  1.048188E+02 -2.298286E+00
       255 -2.819404E-06  2.083480E+00  5.200268E-05
       256 -7.236816E-07  4.481281E+00 -1.202446E+00
       257 -6.205377E-06  4.481333E+00  2.284547E-05
       258  5.592051E-07 -5.281711E+00 -2.048559E-05
       259  5.931192E-06  4.481333E+00  2.308135E-05
       260 -1.450517E-06  4.481397E+00  1.202456E+00
       261  4.267535E-07  3.998604E+00  8.017811E-06

 displacements (vx,vy,vz) for set NALL and time  0.1500000E-01

         5  0.000000E+00  0.000000E+00  0.000000E+00
         6  0.000000E+00  0.000000E+00  0.000000E+00
         7  0.000000E+00  0.000000E+00  0.000000E+00
         8  0.000000E+00  0.000000E+00  0.000000E+00
        21  0.000000E+00  0.000000E+00  0.000000E+00
        22  0.000000E+00  0.000000E+00  0.000000E+00
        23  0.000000E+00  0.000000E+00  0.000000E+00
        24  0.000000E+00  0.000000E+00  0.000000E+00
        25  0.000000E+00  0.000000E+00  0.000000E+00
        26  0.000000E+00  0.000000E+00  0.000000E+00
        27  0.000000E+00  0.000000E+00  0.000000E+00
        28  0.000000E+00  0.000000E+00  0.000000E+00
        29  0.000000E+00  0.000000E+00  0.000000E+00
        30  0.000000E+00  0.000000E+00  0.000000E+00
        31  0.000000E+00  0.000000E+00  0.000000E+00
        32  0.000000E+00  0.000000E+00  0.000000E+00
        44  1.179320E-04 -1.278237E-03  1.853840E-04
        45  2.622583E-05 -9.922210E-04  2.988649E-04
        46 -3.204140E-05 -7.226290E-04  3.422605E-04
        47  4.324381E-05 -2.924881E-04  2.250809E-04
        48 -4.324730E-05 -2.924909E-04  2.250992E-04
        49  3.205801E-05 -7.226484E-04  3.422840E-04
        50 -2.631137E-05 -9.921775E-04  2.988390E-04
        51 -1.179994E-04 -1.278156E-03  1.853736E-04
        74 -1.224854E-04 -1.274567E-03 -1.854704E-04
        75 -2.868828E-05 -9.899235E-04 -2.988817E-04
        76  3.324472E-05 -7.237946E-04 -3.422468E-04
        77 -4.254921E-05 -2.931149E-04 -2.250961E-04
        89  1.224310E-04 -1.274714E-03 -1.855276E-04
        90  2.860041E-05 -9.899220E-04 -2.989094E-04
        91 -3.320999E-05 -7.237929E-04 -3.422078E-04
        92  4.254744E-05 -2.931060E-04 -2.250633E-04
        98  0.000000E+00  0.000000E+00  0.000000E+00
        99  0.000000E+00  0.000000E+00  0.000000E+00
       100  0.000000E+00  0.000000E+00  0.000000E+00
       101  0.000000E+00  0.000000E+00  0.000000E+00
       102  0.000000E+00  0.000000E+00  0.000000E+00
       124 -3.540814E-06 -1.170964E-03  1.747576E-04
       125 -7.785794E-08 -1.403024E-03  1.833097E-04
       126  3.448873E-06 -1.170953E-03  1.747264E-04
       127 -8.644973E-09 -1.031297E-03  3.301943E-04
       128  2.477502E-06 -7.601630E-04  3.672641E-04
       129 -2.393462E-08 -7.046600E-04  3.741820E-04
       130 -2.498747E-06 -7.601634E-04  3.672632E-04
       131  2.126849E-09 -2.974649E-04  2.187177E-04
       153 -9.896818E-05 -1.520095E-03  8.237662E-05
       154 -1.028770E-06 -1.344912E-03  4.124707E-09
       155  1.005743E-04 -1.518025E-03 -8.241815E-05
       156 -5.602815E-08 -1.114862E-03  2.448938E-07
       157  1.987386E-05 -6.279806E-04  1.473728E-04
       158  1.480667E-07 -6.415766E-04  7.003131E-08
       159 -2.024739E-05 -6.285852E-04 -1.474229E-04
       160  2.094610E-08 -2.439622E-04  1.307541E-08
       182 -6.023664E-06 -1.172204E-03 -1.747722E-04
       183 -1.003988E-07 -1.402049E-03 -1.833560E-04
       184  5.917362E-06 -1.172226E-03 -1.747222E-04
       185  3.614671E-09 -1.031760E-03 -3.307223E-04
       186  3.090364E-06 -7.599372E-04 -3.672538E-04
       187 -2.427245E-08 -7.046375E-04 -3.743865E-04
       188 -3.103277E-06 -7.599462E-04 -3.672525E-04
       189  4.874012E-09 -2.973743E-04 -2.187287E-04
       211 -1.006162E-04 -1.518107E-03 -8.234590E-05
       212  9.446440E-07 -1.344867E-03 -5.388960E-08
       213  9.893333E-05 -1.519999E-03  8.238917E-05
       214  5.865128E-08 -1.114876E-03  2.628517E-07
       215  2.023834E-05 -6.285688E-04 -1.474233E-04
       216 -1.893296E-07 -6.415579E-04  9.032537E-08
       217 -1.989391E-05 -6.279873E-04  1.473825E-04
       218 -2.318861E-08 -2.439622E-04  1.448678E-08
       250 -2.268885E-08 -1.513921E-03  8.179874E-05
       251 -3.788714E-07 -9.579212E-04 -1.162040E-07
       252  4.893227E-08 -1.222382E-03  4.140269E-09
       253  3.756897E-07 -9.579476E-04 -3.412479E-08
       254 -3.392928E-08 -1.515004E-03 -8.176737E-05
       255 -2.303602E-08 -1.089898E-03 -1.524952E-08
       256 -6.397991E-09 -6.205104E-04  1.642711E-04
       257  9.917169E-08 -7.244345E-04  8.824694E-09
       258  8.198996E-09 -6.433289E-04 -6.161406E-09
       259 -1.073507E-07 -7.244430E-04 -1.407472E-08
       260 -6.595379E-09 -6.201627E-04 -1.642628E-04
       261 -7.048532E-09 -2.760719E-04 -1.035916E-08

 forces (fx,fy,fz) for set NALL and time  0.1500000E-01

         5  1.315496E+00 -2.765678E-01 -7.356615E-01
         6 -1.315451E+00 -2.766493E-01 -7.358987E-01
         7  1.327427E+00 -2.828030E-01  7.359881E-01
         8 -1.327531E+00 -2.826835E-01  7.366253E-01
        21 -8.050872E-01  1.281094E+00 -7.093806E+00
        22  4.876497E-04 -5.393977E-01 -1.127338E+00
        23  8.046513E-01  1.280531E+00 -7.093566E+00
        24 -9.233695E-01  4.634442E+00 -3.734788E+00
        25  1.691109E-02 -1.889829E+00  3.187341E-03
        26  9.079626E-01  4.642618E+00  3.732381E+00
        27 -8.140627E-01  1.287116E+00  7.096018E+00
        28  5.482112E-04 -5.625896E-01  1.122072E+00
        29  8.135690E-01  1.286931E+00  7.095670E+00
        30 -9.080936E-01  4.643027E+00  3.731549E+00
        31 -1.655166E-02 -1.890025E+00  3.401437E-03
        32  9.234531E-01  4.634112E+00 -3.735282E+00
        44  4.836847E+00  1.177934E+01  5.952909E-01
        45 -4.852695E-06 -4.142314E-01  1.039353E-01
        46  3.723089E-06  1.050144E+00 -3.157028E-01
        47 -1.326568E-06 -7.950387E-01  3.680877E-01
        48  1.447572E-06 -7.950378E-01  3.680881E-01
        49 -3.334395E-06  1.050145E+00 -3.157029E-01
        50  3.614403E-06 -4.142330E-01  1.039350E-01
        51 -4.837326E+00  1.177862E+01  5.944155E-01
        74 -4.927642E+00  1.183039E+01 -5.951292E-01
        75  4.242433E-07 -4.142896E-01 -1.039163E-01
        76 -1.119355E-06  1.050186E+00  3.156973E-01
        77  2.760163E-06 -7.950473E-01 -3.680852E-01
        89  4.927468E+00  1.183061E+01 -5.979114E-01
        90 -2.347007E-06 -4.142871E-01 -1.039163E-01
        91  1.447429E-06  1.050186E+00  3.156974E-01
        92 -2.362315E-06 -7.950488E-01 -3.680852E-01
        98 -1.554263E-04  1.018246E+01 -6.516998E+00
        99  1.723570E-02 -3.126676E+00 -1.533490E-03
       100 -6.965487E-04 -4.172594E+00 -6.840891E-04
       101 -1.686246E-02 -3.126214E+00 -1.608608E-03
       102  1.644388E-04  1.021234E+01  6.520744E+00
       124  5.008204E+00  1.362828E+01 -3.668155E-01
       125 -1.370329E-03  2.430836E+01  1.103197E+00
       126 -5.006889E+00  1.362979E+01 -3.678666E-01
       127  2.996402E-07 -8.284632E-01  2.078644E-01
       128  3.118242E-06 -1.782026E+00  6.375679E-01
       129 -1.347487E-07  2.100289E+00 -6.314035E-01
       130 -3.431263E-06 -1.782025E+00  6.375673E-01
       131  3.607696E-07 -1.590077E+00  7.361742E-01
       153 -3.645601E+00 -4.077243E+01 -9.265769E-01
       154 -1.492040E-01  2.588950E+01  9.917292E-04
       155  3.779052E+00 -4.082515E+01  9.261709E-01
       156 -7.968540E-06 -8.285152E-01 -1.686833E-05
       157 -5.195807E-06 -1.782031E+00  4.781694E-01
       158  3.952982E-06  2.100329E+00  7.888865E-06
       159 -8.885594E-08 -1.782073E+00 -4.781714E-01
       160 -8.315820E-07 -1.590088E+00 -2.291783E-06
       182  5.068491E+00  1.356000E+01  3.673298E-01
       183 -1.378393E-03  2.453252E+01 -1.106177E+00
       184 -5.067285E+00  1.356121E+01  3.704704E-01
       185  8.797395E-07 -8.300441E-01 -2.078286E-01
       186  1.725498E-06 -1.783542E+00 -6.375498E-01
       187 -3.269582E-07  2.098917E+00  6.313955E-01
       188 -1.969093E-06 -1.783541E+00 -6.375496E-01
       189  2.730892E-07 -1.591559E+00 -7.361671E-01
       211 -3.779288E+00 -4.082869E+01  9.310211E-01
       212  1.497585E-01  2.588968E+01 -2.076528E-03
       213  3.645611E+00 -4.076857E+01 -9.247046E-01
       214  6.316333E-06 -8.285157E-01 -1.563598E-05
       215 -1.041549E-06 -1.782072E+00 -4.781715E-01
       216 -3.163001E-06  2.100329E+00  7.318829E-06
       217  4.262006E-06 -1.782032E+00  4.781695E-01
       218  4.154527E-07 -1.590088E+00 -3.160387E-06
       250  6.628693E-05 -8.283645E+01 -1.825611E+00
       251 -1.545407E-01  3.766201E+01 -6.589790E-03
       252  2.512275E-03  5.501207E+01 -3.853600E-04
       253  1.528757E-01  3.766124E+01 -3.034150E-03
       254 -4.041176E-04 -8.311461E+01  1.833519E+00
       255  2.242327E-06 -1.657036E+00 -4.133730E-05
       256  5.755559E-07 -3.564062E+00  9.563318E-01
       257  4.939325E-06 -3.564104E+00 -1.815818E-05
       258 -4.447409E-07  4.200662E+00  1.627673E-05
       259 -4.721268E-06 -3.564104E+00 -1.834579E-05
       260  1.153624E-06 -3.564154E+00 -9.563400E-01
       261 -3.394080E-07 -3.180180E+00 -6.375996E-06

 displacements (vx,vy,vz) for set NALL and time  0.2000000E-01

         5  0.000000E+00  0.000000E+00  0.000000E+00
         6  0.000000E+00  0.000000E+00  0.000000E+00
         7  0.000000E+00  0.000000E+00  0.000000E+00
         8  0.000000E+00  0.000000E+00  0.000000E+00
        21  0.000000E+00  0.000000E+00  0.000000E+00
        22  0.000000E+00  0.000000E+00  0.000000E+00
        23  0.000000E+00  0.000000E+00  0.000000E+00
        24  0.000000E+00  0.000000E+00  0.000000E+00
        25  0.000000E+00  0.000000E+00  0.000000E+00
        26  0.000000E+00  0.000000E+00  0.000000E+00
        27  0.000000E+00  0.000000E+00  0.000000E+00
        28  0.000000E+00  0.000000E+00  0.000000E+00
        29  0.000000E+00  0.000000E+00  0.000000E+00
        30  0.000000E+00  0.000000E+00  0.000000E+00
        31  0.000000E+00  0.000000E+00  0.000000E+00
        32  0.000000E+00  0.000000E+00  0.000000E+00
        44 -8.798062E-05  9.943969E-04 -1.436961E-04
        45 -1.911776E-05  7.711253E-04 -2.317004E-04
        46  2.412460E-05  5.598909E-04 -2.657205E-04
        47 -3.399690E-05  2.264265E-04 -1.745337E-04
        48  3.398821E-05  2.264151E-04 -1.744930E-04
        49 -2.411222E-05  5.598686E-04 -2.656645E-04
        50  1.897185E-05  7.711463E-04 -2.317162E-04
        51  8.788977E-05  9.945068E-04 -1.437295E-04
        74  9.227001E-05  9.906068E-04  1.437434E-04
        75  2.141138E-05  7.687803E-04  2.316985E-04
        76 -2.514511E-05  5.608558E-04  2.656268E-04
        77  3.329360E-05  2.270680E-04  1.744886E-04
        89 -9.243473E-05  9.904484E-04  1.437368E-04
        90 -2.156357E-05  7.687542E-04  2.316933E-04
        91  2.514292E-05  5.608629E-04  2.656811E-04
        92 -3.330681E-05  2.270756E-04  1.745296E-04
        98  0.000000E+00  0.000000E+00  0.000000E+00
        99  0.000000E+00  0.000000E+00  0.000000E+00
       100  0.000000E+00  0.000000E+00  0.000000E+00
       101  0.000000E+00  0.000000E+00  0.000000E+00
       102  0.000000E+00  0.000000E+00  0.000000E+00
       124  1.162345E-06  9.074629E-04 -1.353634E-04
       125 -1.290645E-07  1.088717E-03 -1.420457E-04
       126 -1.315124E-06  9.074724E-04 -1.354359E-04
       127 -1.613346E-08  7.995019E-04 -2.559748E-04
       128 -1.645332E-06  5.900633E-04 -2.848705E-04
       129 -4.218998E-08  5.469408E-04 -2.900315E-04
       130  1.603105E-06  5.900621E-04 -2.848769E-04
       131  1.854582E-09  2.309571E-04 -1.697469E-04
       153  7.476721E-05  1.178543E-03 -6.382785E-05
       154  9.234300E-07  1.039907E-03  8.760039E-08
       155 -7.646152E-05  1.174981E-03  6.376282E-05
       156 -1.125484E-08  8.651256E-04 -2.723292E-07
       157 -1.496930E-05  4.866608E-04 -1.144288E-04
       158 -2.248076E-07  4.971962E-04 -1.102830E-07
       159  1.528766E-05  4.875035E-04  1.144427E-04
       160 -1.366740E-08  1.894377E-04 -1.714400E-08
       182  5.025516E-06  9.088105E-04  1.353792E-04
       183 -1.476196E-07  1.087503E-03  1.420370E-04
       184 -5.230224E-06  9.087932E-04  1.354380E-04
       185 -2.772021E-08  7.998266E-04  2.564765E-04
       186 -2.522250E-06  5.897914E-04  2.848318E-04
       187 -4.351859E-08  5.470884E-04  2.902264E-04
       188  2.471078E-06  5.897827E-04  2.848426E-04
       189 -5.972888E-10  2.308644E-04  1.697541E-04
       211  7.638008E-05  1.174865E-03  6.382628E-05
       212 -9.987776E-07  1.039907E-03 -1.768257E-08
       213 -7.480378E-05  1.178635E-03 -6.380029E-05
       214 -5.741351E-08  8.651103E-04 -2.425547E-07
       215 -1.532280E-05  4.875149E-04  1.144655E-04
       216  1.731755E-07  4.971980E-04 -6.406589E-08
       217  1.494006E-05  4.866434E-04 -1.144019E-04
       218 -1.235634E-09  1.894349E-04  1.488826E-09
       250 -7.345469E-08  1.175452E-03 -6.337692E-05
       251  1.097387E-06  7.431196E-04  1.890700E-08