
 displacements (vx,vy,vz) for set NALL and time  0.5000000E-02

         5  0.000000E+00  0.000000E+00  0.000000E+00
         6  0.000000E+00  0.000000E+00  0.000000E+00
         7  0.000000E+00  0.000000E+00  0.000000E+00
         8  0.000000E+00  0.000000E+00  0.000000E+00
        21  0.000000E+00  0.000000E+00  0.000000E+00
        22  0.000000E+00  0.000000E+00  0.000000E+00
        23  0.000000E+00  0.000000E+00  0.000000E+00
        24  0.000000E+00  0.000000E+00  0.000000E+00
        25  0.000000E+00  0.000000E+00  0.000000E+00
        26  0.000000E+00  0.000000E+00  0.000000E+00
        27  0.000000E+00  0.000000E+00  0.000000E+00
        28  0.000000E+00  0.000000E+00  0.000000E+00
        29  0.000000E+00  0.000000E+00  0.000000E+00
        30  0.000000E+00  0.000000E+00  0.000000E+00
        31  0.000000E+00  0.000000E+00  0.000000E+00
        32  0.000000E+00  0.000000E+00  0.000000E+00
        44 -6.014403E-05 -3.465587E-03  4.484472E-04
        45  5.681061E-05 -2.562384E-03  7.855039E-04
        46 -4.771327E-05 -1.795765E-03  9.494094E-04
        47  1.310129E-04 -6.750042E-04  5.432349E-04
        48 -1.310112E-04 -6.750033E-04  5.432321E-04
        49  4.771889E-05 -1.795765E-03  9.494038E-04
        50 -5.679769E-05 -2.562383E-03  7.854965E-04
        51  6.016697E-05 -3.465589E-03  4.484389E-04
        74  3.191464E-04 -4.412804E-03 -4.945244E-04
        75  1.912753E-04 -2.972618E-03 -7.848491E-04
        76 -1.104613E-04 -1.597511E-03 -9.499931E-04
        77 -2.079334E-04 -5.266318E-04 -5.581931E-04
        89 -3.191227E-04 -4.412803E-03 -4.945334E-04
        90 -1.912624E-04 -2.972619E-03 -7.848566E-04
        91  1.104670E-04 -1.597512E-03 -9.499986E-04
        92  2.079350E-04 -5.266328E-04 -5.581959E-04
        98  0.000000E+00  0.000000E+00  0.000000E+00
        99  0.000000E+00  0.000000E+00  0.000000E+00
       100  0.000000E+00  0.000000E+00  0.000000E+00
       101  0.000000E+00  0.000000E+00  0.000000E+00
       102  0.000000E+00  0.000000E+00  0.000000E+00
       124  1.494357E-04 -2.966298E-03  4.296659E-04
       125  1.101781E-08 -3.589532E-03  4.485702E-04
       126 -1.494131E-04 -2.966296E-03  4.296696E-04
       127  6.346473E-09 -2.562631E-03  9.036795E-04
       128 -9.104102E-06 -1.952940E-03  9.482449E-04
       129  2.733342E-09 -1.814663E-03  9.416106E-04
       130  9.109501E-06 -1.952940E-03  9.482477E-04
       131  5.606966E-10 -7.364573E-04  5.564138E-04
       153  7.011868E-05 -3.636041E-03  1.912609E-04
       154 -1.202589E-04 -2.502925E-03 -2.093883E-05
       155 -6.534845E-05 -3.889332E-03 -2.379226E-04
       156 -1.202897E-04 -2.789517E-03 -6.460198E-05
       157 -2.058870E-05 -1.509027E-03  3.923914E-04
       158  8.846797E-05 -1.567027E-03 -2.941820E-05
       159  4.680839E-05 -1.475532E-03 -4.111043E-04
       160  3.982497E-05 -6.565475E-04  4.895124E-06
       182  1.149051E-04 -2.562617E-03 -4.710863E-04
       183  1.113135E-08 -4.355727E-03 -4.765336E-04
       184 -1.148823E-04 -2.562615E-03 -4.710902E-04
       185  6.370883E-09 -2.833320E-03 -8.740322E-04
       186 -4.413841E-05 -2.162482E-03 -9.827463E-04
       187  2.712703E-09 -1.831868E-03 -9.637841E-04
       188  4.414384E-05 -2.162482E-03 -9.827491E-04
       189  5.616161E-10 -7.199442E-04 -5.645200E-04
       211  6.537112E-05 -3.889331E-03 -2.379335E-04
       212  1.202828E-04 -2.502925E-03 -2.094890E-05
       213 -7.009592E-05 -3.636042E-03  1.912502E-04
       214  1.203034E-04 -2.789517E-03 -6.460984E-05
       215 -4.680222E-05 -1.475532E-03 -4.111096E-04
       216 -8.846213E-05 -1.567027E-03 -2.942385E-05
       217  2.059476E-05 -1.509026E-03  3.923862E-04
       218 -3.982309E-05 -6.565475E-04  4.892308E-06
       250  1.113393E-08 -4.082271E-03  1.744207E-04
       251  3.044324E-05 -2.572213E-03 -1.053634E-05
       252  1.094071E-08 -3.123789E-03 -1.587886E-05
       253 -3.042115E-05 -2.572213E-03 -1.053135E-05
       254  1.112483E-08 -4.413504E-03 -2.541531E-04
       255  6.358158E-09 -2.599415E-03 -3.200892E-05
       256  2.908014E-09 -1.607455E-03  3.956844E-04
       257 -4.116480E-05 -1.749401E-03 -1.200101E-05
       258  3.013229E-09 -1.790418E-03 -1.455266E-05
       259  4.117078E-05 -1.749401E-03 -1.199818E-05
       260  2.909788E-09 -1.622566E-03 -4.183210E-04
       261  7.412698E-10 -7.170783E-04 -1.983470E-06

 forces (fx,fy,fz) for set NALL and time  0.5000000E-02

         5  2.298017E+00 -4.178524E+00 -1.103269E+00
         6 -2.298035E+00 -4.178514E+00 -1.103267E+00
         7  3.464049E+00  1.082956E+00  1.268645E+00
         8 -3.464070E+00  1.082969E+00  1.268645E+00
        21 -2.788203E+00  5.574276E+00 -1.789770E+01
        22 -1.169480E-05 -9.888072E+00 -6.596125E-01
        23  2.788236E+00  5.574280E+00 -1.789774E+01
        24 -4.633430E+00  1.711390E+01 -1.022115E+01
        25  8.564997E-01 -1.151840E+01 -4.599373E-01
        26  2.146300E+00  1.342678E+01  1.050653E+01
        27 -1.824506E+00 -4.475744E-01  1.759878E+01
        28 -1.323178E-05 -1.607206E+00  1.779638E+00
        29  1.824542E+00 -4.475719E-01  1.759883E+01
        30 -2.146307E+00  1.342677E+01  1.050660E+01
        31 -8.565449E-01 -1.151840E+01 -4.599462E-01
        32  4.633422E+00  1.711390E+01 -1.022108E+01
        44  1.935852E+00  5.188286E+01  1.428356E+00
        45 -7.131310E-06 -6.080380E-01  1.525634E-01
        46  5.450894E-06  1.541473E+00 -4.634098E-01
        47 -1.911847E-06 -1.167011E+00  5.403038E-01
        48  2.089464E-06 -1.167010E+00  5.403044E-01
        49 -4.880348E-06  1.541474E+00 -4.634100E-01
        50  5.313674E-06 -6.080403E-01  1.525630E-01
        51 -1.935815E+00  5.188289E+01  1.428378E+00
        74 -7.401694E+00  1.758379E+01 -9.884661E-01
        75  6.456157E-07 -6.081234E-01 -1.525356E-01
        76 -1.637875E-06  1.541534E+00  4.634018E-01
        77  4.014528E-06 -1.167024E+00 -5.403001E-01
        89  7.401752E+00  1.758374E+01 -9.884433E-01
        90 -3.467965E-06 -6.081198E-01 -1.525355E-01
        91  2.119437E-06  1.541534E+00  4.634019E-01
        92 -3.430540E-06 -1.167026E+00 -5.403000E-01
        98  5.655763E-07  3.798462E+01 -1.717585E+01
        99 -2.309363E-01 -7.609897E+00  6.532568E-01
       100 -3.408870E-05 -2.290698E+01 -3.811374E-01
       101  2.310044E-01 -7.609894E+00  6.531831E-01
       102  2.036200E-06  3.528511E+01  1.649531E+01
       124  1.706231E+01  1.975147E+01 -6.036080E-01
       125  2.000628E-05  1.114736E+02  2.955426E+00
       126 -1.706235E+01  1.975152E+01 -6.035859E-01
       127  4.398406E-07 -1.216077E+00  3.051177E-01
       128  4.557338E-06 -2.615777E+00  9.358650E-01
       129 -1.977978E-07  3.082946E+00 -9.268166E-01
       130 -5.016806E-06 -2.615776E+00  9.358641E-01
       131  5.295605E-07 -2.334021E+00  1.080606E+00
       153  1.155684E+01 -1.326895E+02 -2.291147E+00
       154 -2.881692E+00  9.857319E+01  4.246999E-01
       155  4.081926E+00 -1.082807E+02  1.411886E+00
       156 -1.171618E-05 -1.216153E+00 -2.478955E-05
       157 -7.607184E-06 -2.615785E+00  7.018891E-01
       158  5.803689E-06  3.083006E+00  1.159795E-05
       159 -1.389642E-07 -2.615848E+00 -7.018921E-01
       160 -1.208057E-06 -2.334038E+00 -3.363791E-06
       182  8.017991E+00  6.535249E+01  4.181599E-01
       183  3.547996E-05  5.162835E+01 -1.389797E+00
       184 -8.018050E+00  6.535255E+01  4.181319E-01
       185  1.291349E-06 -6.742573E+00 -3.050653E-01
       186  2.521120E-06 -8.142179E+00 -9.358385E-01
       187 -4.799358E-07 -2.443243E+00  9.268048E-01
       188 -2.878679E-06 -8.142177E+00 -9.358381E-01
       189  4.008575E-07 -7.860373E+00 -1.080595E+00
       211 -4.081972E+00 -1.082806E+02  1.411797E+00
       212  2.881823E+00  9.857317E+01  4.247456E-01
       213 -1.155687E+01 -1.326895E+02 -2.291231E+00
       214  9.290964E-06 -1.216154E+00 -2.298063E-05
       215 -1.520315E-06 -2.615846E+00 -7.018923E-01
       216 -4.644108E-06  3.083005E+00  1.076122E-05
       217  6.236492E-06 -2.615787E+00  7.018893E-01
       218  5.972354E-07 -2.334038E+00 -4.638785E-06
       250  1.111196E-05 -2.938023E+02 -5.863412E+00
       251  5.241078E+00  8.828000E+01  5.448425E-01
       252  9.045566E-05  2.056577E+02  1.302713E+00
       253 -5.241263E+00  8.827998E+01  5.449130E-01
       254 -1.604853E-06 -2.683970E+02  1.556908E+00
       255  3.291446E-06 -2.432314E+00 -6.072733E-05
       256  8.448430E-07 -5.231571E+00  1.403768E+00
       257  7.240952E-06 -5.231633E+00 -2.667987E-05
       258 -6.528275E-07  6.166016E+00  2.392870E-05
       259 -6.920868E-06 -5.231632E+00 -2.695524E-05
       260  1.693371E-06 -5.231707E+00 -1.403780E+00
       261 -4.982047E-07 -4.668080E+00 -9.360838E-06

 displacements (vx,vy,vz) for set NALL and time  0.1000000E-01

         5  0.000000E+00  0.000000E+00  0.000000E+00
         6  0.000000E+00  0.000000E+00  0.000000E+00
         7  0.000000E+00  0.000000E+00  0.000000E+00
         8  0.000000E+00  0.000000E+00  0.000000E+00
        21  0.000000E+00  0.000000E+00  0.000000E+00
        22  0.000000E+00  0.000000E+00  0.000000E+00
        23  0.000000E+00  0.000000E+00  0.000000E+00
        24  0.000000E+00  0.000000E+00  0.000000E+00
        25  0.000000E+00  0.000000E+00  0.000000E+00
        26  0.000000E+00  0.000000E+00  0.000000E+00
        27  0.000000E+00  0.000000E+00  0.000000E+00
        28  0.000000E+00  0.000000E+00  0.000000E+00
        29  0.000000E+00  0.000000E+00  0.000000E+00
        30  0.000000E+00  0.000000E+00  0.000000E+00
        31  0.000000E+00  0.000000E+00  0.000000E+00
        32  0.000000E+00  0.000000E+00  0.000000E+00
        44 -1.564351E-04  1.601018E-03 -2.337992E-04
        45 -3.768951E-05  1.246588E-03 -3.766854E-04
        46  4.292976E-05  9.150733E-04 -4.320660E-04
        47 -5.328425E-05  3.707121E-04 -2.840499E-04
        48  5.330317E-05  3.707088E-04 -2.840514E-04
        49 -4.284861E-05  9.150430E-04 -4.320668E-04
        50  3.774376E-05  1.246575E-03 -3.767429E-04
        51  1.566879E-04  1.600900E-03 -2.338738E-04
        74  1.552042E-04  1.606266E-03  2.340761E-04
        75  3.644071E-05  1.248837E-03  3.767077E-04
        76 -4.213397E-05  9.140340E-04  4.320723E-04
        77  5.369318E-05  3.699132E-04  2.841377E-04
        89 -1.552869E-04  1.605998E-03  2.339559E-04
        90 -3.638536E-05  1.248839E-03  3.766346E-04
        91  4.214042E-05  9.139932E-04  4.320606E-04
        92 -5.369286E-05  3.698986E-04  2.841300E-04
        98  0.000000E+00  0.000000E+00  0.000000E+00
        99  0.000000E+00  0.000000E+00  0.000000E+00
       100  0.000000E+00  0.000000E+00  0.000000E+00
       101  0.000000E+00  0.000000E+00  0.000000E+00
       102  0.000000E+00  0.000000E+00  0.000000E+00
       124  6.150746E-06  1.481610E-03 -2.204431E-04
       125  5.615303E-08  1.765207E-03 -2.310917E-04
       126 -5.967686E-06  1.481695E-03 -2.205229E-04
       127  7.143728E-08  1.300059E-03 -4.178422E-04
       128 -3.741468E-06  9.584491E-04 -4.633901E-04
       129  8.424559E-09  8.905140E-04 -4.724407E-04
       130  3.788616E-06  9.584607E-04 -4.633673E-04
       131  1.076808E-08  3.757908E-04 -2.760016E-04
       153  1.269932E-04  1.913380E-03 -1.038588E-04
       154  7.501670E-07  1.696259E-03  1.251437E-07
       155 -1.270283E-04  1.915306E-03  1.040785E-04
       156  7.274230E-07  1.407535E-03  3.757917E-07
       157 -2.535455E-05  7.933661E-04 -1.860505E-04
       158 -4.681405E-07  8.091091E-04  1.652953E-07
       159  2.526373E-05  7.930838E-04  1.861760E-04
       160 -2.188179E-07  3.078006E-04 -2.365649E-08
       182  5.775964E-06  1.479466E-03  2.207775E-04
       183  2.809622E-08  1.769483E-03  2.312484E-04
       184 -5.780455E-06  1.479318E-03  2.206290E-04
       185 -8.847993E-09  1.301567E-03  4.176516E-04
       186 -3.493867E-06  9.595688E-04  4.635551E-04
       187  2.365008E-08  8.904580E-04  4.725646E-04
       188  3.517950E-06  9.595507E-04  4.635651E-04
       189 -1.342358E-09  3.756673E-04  2.760525E-04
       211  1.269963E-04  1.915140E-03  1.041431E-04
       212 -7.167075E-07  1.696192E-03  5.653922E-08
       213 -1.268299E-04  1.913301E-03 -1.039140E-04
       214 -6.386562E-07  1.407471E-03  3.398540E-07
       215 -2.525202E-05  7.930671E-04  1.861219E-04
       216  4.836021E-07  8.091164E-04  1.403472E-07
       217  2.540010E-05  7.933532E-04 -1.860712E-04
       218  2.337949E-07  3.077892E-04 -3.762578E-08
       250  5.780798E-08  1.910248E-03 -1.028360E-04
       251 -4.210878E-07  1.208095E-03 -3.273828E-08
       252  7.444619E-08  1.543185E-03  9.825714E-08
       253  5.165021E-07  1.208122E-03  5.821732E-08
       254  5.793689E-08  1.911568E-03  1.033195E-04
       255  2.318662E-08  1.375151E-03  1.697046E-07
       256  1.871909E-08  7.833942E-04 -2.072412E-04
       257  2.945435E-07  9.143172E-04  6.786833E-08
       258  2.539532E-08  8.123054E-04  7.193530E-08
       259 -2.620880E-07  9.143151E-04  6.671561E-08
       260  2.279573E-08  7.835239E-04  2.073479E-04
       261  3.447149E-09  3.484234E-04  1.261751E-08

 forces (fx,fy,fz) for set NALL and time  0.1000000E-01

         5 -1.679624E+00  3.925844E-01  9.253012E-01
         6  1.679535E+00  3.926572E-01  9.249632E-01
         7 -1.688057E+00  3.648009E-01 -9.260292E-01
         8  1.688073E+00  3.649197E-01 -9.258538E-01
        21  1.061934E+00 -1.668299E+00  8.959857E+00
        22  3.468680E-04  7.788904E-01  1.402905E+00
        23 -1.062242E+00 -1.668638E+00  8.960252E+00
        24  1.167062E+00 -5.886156E+00  4.711804E+00
        25 -3.837422E-03  2.432195E+00  2.325922E-03
        26 -1.151951E+00 -5.868314E+00 -4.713469E+00
        27  1.059869E+00 -1.634974E+00 -8.958806E+00
        28 -1.154923E-04  7.306419E-01 -1.408374E+00
        29 -1.059640E+00 -1.634678E+00 -8.957821E+00
        30  1.152354E+00 -5.868124E+00 -4.714294E+00
        31  4.067691E-03  2.431807E+00  2.482382E-03
        32 -1.167383E+00 -5.885936E+00  4.712144E+00
        44 -6.238464E+00 -1.517085E+01 -7.476449E-01
        45  6.107666E-06  5.208353E-01 -1.306833E-01
        46 -4.673506E-06 -1.320401E+00  3.969495E-01
        47  1.646884E-06  9.996432E-01 -4.628157E-01
        48 -1.799029E-06  9.996421E-01 -4.628162E-01
        49  4.184787E-06 -1.320402E+00  3.969497E-01
        50 -4.550710E-06  5.208373E-01 -1.306830E-01
        51  6.238393E+00 -1.517096E+01 -7.495113E-01
        74  6.283310E+00 -1.498890E+01  7.460984E-01
        75 -5.475609E-07  5.209086E-01  1.306595E-01
        76  1.404572E-06 -1.320454E+00 -3.969427E-01
        77 -3.448522E-06  9.996540E-01  4.628125E-01
        89 -6.283579E+00 -1.498914E+01  7.453588E-01
        90  2.965141E-06  5.209054E-01  1.306595E-01
        91 -1.817070E-06 -1.320453E+00 -3.969428E-01
        92  2.948288E-06  9.996559E-01  4.628125E-01
        98 -7.005617E-05 -1.293838E+01  8.230364E+00
        99  4.490948E-03  3.916760E+00 -2.638193E-03
       100 -3.337282E-04  5.355874E+00  2.210790E-03
       101 -4.226429E-03  3.916752E+00 -3.623151E-03
       102 -3.372628E-04 -1.291805E+01 -8.227718E+00
       124 -6.613417E+00 -1.681696E+01  4.592032E-01
       125 -4.204226E-04 -3.137622E+01 -1.389675E+00
       126  6.614003E+00 -1.681634E+01  4.551754E-01
       127 -3.767634E-07  1.041671E+00 -2.613589E-01
       128 -3.909445E-06  2.240633E+00 -8.016472E-01
       129  1.694327E-07 -2.640803E+00  7.938964E-01
       130  4.303015E-06  2.240632E+00 -8.016464E-01
       131 -4.536139E-07  1.999285E+00 -9.256298E-01
       153  4.632238E+00  5.169474E+01  1.167393E+00
       154  7.248868E-03 -3.296659E+01 -1.057292E-03
       155 -4.726521E+00  5.158050E+01 -1.164466E+00
       156  1.002980E-05  1.041737E+00  2.122530E-05
       157  6.521867E-06  2.240640E+00 -6.012271E-01
       158 -4.970939E-06 -2.640853E+00 -9.928997E-06
       159  1.167755E-07  2.240694E+00  6.012297E-01
       160  1.038729E-06  1.999300E+00  2.881449E-06
       182 -6.586934E+00 -1.707217E+01 -4.547064E-01
       183 -1.119860E-04 -3.101958E+01  1.380233E+00
       184  6.587578E+00 -1.707276E+01 -4.577171E-01
       185 -1.106149E-06  1.069527E+00  2.613140E-01
       186 -2.162722E-06  2.268408E+00  8.016245E-01
       187  4.111055E-07 -2.613210E+00 -7.938863E-01
       188  2.469002E-06  2.268406E+00  8.016241E-01
       189 -3.433682E-07  2.027017E+00  9.256210E-01
       211  4.725734E+00  5.157990E+01 -1.160096E+00
       212 -7.965671E-03 -3.296639E+01 -3.177232E-03
       213 -4.632167E+00  5.169539E+01  1.168814E+00
       214 -7.952398E-06  1.041737E+00  1.967581E-05
       215  1.304536E-06  2.240692E+00  6.012298E-01
       216  3.977662E-06 -2.640853E+00 -9.212264E-06
       217 -5.347756E-06  2.240641E+00 -6.012273E-01
       218 -5.155099E-07  1.999300E+00  3.973589E-06
       250  6.673147E-05  1.051809E+02  2.327375E+00
       251 -5.402405E-02 -4.730972E+01 -8.623375E-03
       252  1.498479E-04 -6.997523E+01 -6.453570E-03
       253  5.461877E-02 -4.730978E+01 -4.204448E-03
       254  3.448932E-04  1.049932E+02 -2.298303E+00
       255 -2.819404E-06  2.083480E+00  5.200266E-05
       256 -7.236820E-07  4.481281E+00 -1.202446E+00
       257 -6.205367E-06  4.481333E+00  2.284547E-05
       258  5.592042E-07 -5.281711E+00 -2.048559E-05
       259  5.931185E-06  4.481333E+00  2.308135E-05
       260 -1.450515E-06  4.481397E+00  1.202456E+00
       261  4.267538E-07  3.998604E+00  8.017815E-06

 displacements (vx,vy,vz) for set NALL and time  0.1500000E-01

         5  0.000000E+00  0.000000E+00  0.000000E+00
         6  0.000000E+00  0.000000E+00  0.000000E+00
         7  0.000000E+00  0.000000E+00  0.000000E+00
         8  0.000000E+00  0.000000E+00  0.000000E+00
        21  0.000000E+00  0.000000E+00  0.000000E+00
        22  0.000000E+00  0.000000E+00  0.000000E+00
        23  0.000000E+00  0.000000E+00  0.000000E+00
        24  0.000000E+00  0.000000E+00  0.000000E+00
        25  0.000000E+00  0.000000E+00  0.000000E+00
        26  0.000000E+00  0.000000E+00  0.000000E+00
        27  0.000000E+00  0.000000E+00  0.000000E+00
        28  0.000000E+00  0.000000E+00  0.000000E+00
        29  0.000000E+00  0.000000E+00  0.000000E+00
        30  0.000000E+00  0.000000E+00  0.000000E+00
        31  0.000000E+00  0.000000E+00  0.000000E+00
        32  0.000000E+00  0.000000E+00  0.000000E+00
        44  1.253521E-04 -1.266549E-03  1.852438E-04
        45  2.947774E-05 -9.879419E-04  2.977744E-04
        46 -3.367707E-05 -7.242293E-04  3.418503E-04
        47  4.234001E-05 -2.937006E-04  2.251211E-04
        48 -4.234949E-05 -2.936936E-04  2.250893E-04
        49  3.360371E-05 -7.242097E-04  3.418263E-04
        50 -2.937643E-05 -9.880039E-04  2.978559E-04
        51 -1.252100E-04 -1.266854E-03  1.852883E-04
        74 -1.305962E-04 -1.261084E-03 -1.852470E-04
        75 -3.258997E-05 -9.848168E-04 -2.978154E-04
        76  3.574272E-05 -7.263350E-04 -3.418649E-04
        77 -4.141474E-05 -2.946480E-04 -2.251103E-04
        89  1.307022E-04 -1.260807E-03 -1.852047E-04
        90  3.267657E-05 -9.847548E-04 -2.977409E-04
        91 -3.582181E-05 -7.263626E-04 -3.418661E-04
        92  4.140347E-05 -2.946603E-04 -2.251332E-04
        98  0.000000E+00  0.000000E+00  0.000000E+00
        99  0.000000E+00  0.000000E+00  0.000000E+00
       100  0.000000E+00  0.000000E+00  0.000000E+00
       101  0.000000E+00  0.000000E+00  0.000000E+00
       102  0.000000E+00  0.000000E+00  0.000000E+00
       124 -6.232378E-06 -1.173266E-03  1.746431E-04
       125  1.425679E-07 -1.398540E-03  1.830340E-04
       126  6.387286E-06 -1.173238E-03  1.746941E-04
       127 -2.072965E-08 -1.029224E-03  3.307636E-04
       128  3.028591E-06 -7.591510E-04  3.669662E-04
       129  2.939904E-08 -7.058859E-04  3.741921E-04
       130 -3.020073E-06 -7.591355E-04  3.669588E-04
       131 -1.076509E-08 -2.979168E-04  2.186021E-04
       153 -1.017760E-04 -1.513742E-03  8.238916E-05
       154 -9.875354E-07 -1.347517E-03 -1.023085E-07
       155  1.036578E-04 -1.514630E-03 -8.240718E-05
       156  1.711946E-07 -1.116009E-03  3.410533E-07
       157  2.035470E-05 -6.286135E-04  1.473290E-04
       158 -1.120216E-07 -6.403148E-04  1.361044E-07
       159 -2.077802E-05 -6.287739E-04 -1.473795E-04
       160 -2.271538E-08 -2.434134E-04  1.545374E-08
       182 -5.291255E-06 -1.175236E-03 -1.746162E-04
       183  1.286238E-07 -1.396224E-03 -1.829269E-04
       184  5.414730E-06 -1.175223E-03 -1.746281E-04
       185 -2.131469E-08 -1.029448E-03 -3.315177E-04
       186  3.191044E-06 -7.587037E-04 -3.669425E-04
       187  2.622869E-08 -7.058206E-04 -3.744649E-04
       188 -3.188502E-06 -7.586920E-04 -3.669321E-04
       189 -1.231464E-08 -2.979430E-04 -2.186590E-04
       211 -1.036910E-04 -1.514413E-03 -8.239942E-05
       212  9.917871E-07 -1.347527E-03  7.438013E-08
       213  1.017635E-04 -1.513983E-03  8.232362E-05
       214 -2.450038E-07 -1.116024E-03  3.417257E-07
       215  2.077537E-05 -6.288053E-04 -1.473626E-04
       216  1.515845E-07 -6.403154E-04  1.224042E-07
       217 -2.035444E-05 -6.285865E-04  1.473489E-04
       218  1.500872E-08 -2.434151E-04  3.038722E-08
       250 -5.416710E-09 -1.515193E-03  8.160126E-05
       251  1.194397E-06 -9.555254E-04 -8.721031E-10
       252 -1.920859E-07 -1.223966E-03 -2.526007E-08
       253 -1.354886E-06 -9.555218E-04 -1.634033E-07
       254 -1.239819E-08 -1.512601E-03 -8.145856E-05
       255  6.182444E-09 -1.089674E-03  9.773017E-10
       256 -7.890753E-09 -6.203914E-04  1.641793E-04
       257 -1.343695E-07 -7.248017E-04 -2.257338E-08
       258 -3.619725E-08 -6.431543E-04 -8.368813E-09
       259  1.080171E-07 -7.248008E-04  2.950222E-09
       260 -9.151462E-09 -6.206977E-04 -1.641886E-04
       261  1.116490E-08 -2.759213E-04  2.546607E-09

 forces (fx,fy,fz) for set NALL and time  0.1500000E-01

         5  1.332915E+00 -2.824315E-01 -7.379602E-01
         6 -1.332982E+00 -2.822454E-01 -7.372195E-01
         7  1.357666E+00 -3.077381E-01  7.375425E-01
         8 -1.357698E+00 -3.075976E-01  7.371108E-01
        21 -8.400531E-01  1.307172E+00 -7.096405E+00
        22 -1.002154E-03 -5.934940E-01 -1.119366E+00
        23  8.409601E-01  1.307953E+00 -7.096520E+00
        24 -9.184205E-01  4.613473E+00 -3.729891E+00
        25  1.120653E-02 -1.890709E+00  4.604462E-03
        26  9.034304E-01  4.649078E+00  3.726365E+00
        27 -8.769650E-01  1.324918E+00  7.100051E+00
        28 -9.741780E-04 -6.200135E-01  1.109300E+00
        29  8.778531E-01  1.325831E+00  7.100042E+00
        30 -9.034537E-01  4.647917E+00  3.726896E+00
        31 -1.162209E-02 -1.890783E+00  4.376107E-03
        32  9.184507E-01  4.614771E+00 -3.728972E+00
        44  4.965523E+00  1.182717E+01  5.909479E-01
        45 -4.852755E-06 -4.142314E-01  1.039353E-01
        46  3.723101E-06  1.050144E+00 -3.157028E-01
        47 -1.326550E-06 -7.950387E-01  3.680877E-01
        48  1.447556E-06 -7.950378E-01  3.680881E-01
        49 -3.334421E-06  1.050145E+00 -3.157029E-01
        50  3.614482E-06 -4.142330E-01  1.039350E-01
        51 -4.963948E+00  1.182902E+01  5.942677E-01
        74 -5.141193E+00  1.201309E+01 -5.920143E-01
        75  4.242735E-07 -4.142896E-01 -1.039163E-01
        76 -1.119372E-06  1.050186E+00  3.156973E-01
        77  2.760161E-06 -7.950473E-01 -3.680852E-01
        89  5.142563E+00  1.201152E+01 -5.910081E-01
        90 -2.347026E-06 -4.142871E-01 -1.039163E-01
        91  1.447438E-06  1.050186E+00  3.156974E-01
        92 -2.362313E-06 -7.950488E-01 -3.680852E-01
        98  9.248130E-05  1.023381E+01 -6.516891E+00
        99  3.651357E-03 -3.107059E+00 -2.414541E-03
       100  1.601533E-03 -4.223965E+00  1.605865E-04
       101 -4.817396E-03 -3.107007E+00 -1.904849E-03
       102  1.685518E-04  1.024568E+01  6.521462E+00
       124  5.209150E+00  1.342605E+01 -3.646968E-01
       125  3.439232E-03  2.468612E+01  1.097155E+00
       126 -5.212557E+00  1.342304E+01 -3.609821E-01
       127  2.996602E-07 -8.284632E-01  2.078644E-01
       128  3.118274E-06 -1.782026E+00  6.375679E-01
       129 -1.347635E-07  2.100289E+00 -6.314035E-01
       130 -3.431276E-06 -1.782025E+00  6.375673E-01
       131  3.607719E-07 -1.590077E+00  7.361742E-01
       153 -3.720559E+00 -4.062509E+01 -9.201188E-01
       154 -9.762171E-02  2.592346E+01 -6.509826E-04
       155  3.848025E+00 -4.088645E+01  9.243879E-01
       156 -7.968378E-06 -8.285152E-01 -1.686829E-05
       157 -5.195806E-06 -1.782031E+00  4.781694E-01
       158  3.952924E-06  2.100329E+00  7.888861E-06
       159 -8.883678E-08 -1.782073E+00 -4.781714E-01
       160 -8.316257E-07 -1.590088E+00 -2.291789E-06
       182  5.473011E+00  1.327895E+01  3.616626E-01
       183  3.580584E-03  2.490828E+01 -1.096427E+00
       184 -5.476371E+00  1.327599E+01  3.608087E-01
       185  8.797478E-07 -8.300441E-01 -2.078286E-01
       186  1.725515E-06 -1.783542E+00 -6.375498E-01
       187 -3.269649E-07  2.098917E+00  6.313955E-01
       188 -1.969102E-06 -1.783541E+00 -6.375496E-01
       189  2.730890E-07 -1.591559E+00 -7.361671E-01
       211 -3.847548E+00 -4.087657E+01  9.217794E-01
       212  9.573019E-02  2.592326E+01  3.804359E-03
       213  3.720970E+00 -4.063514E+01 -9.268866E-01
       214  6.316194E-06 -8.285157E-01 -1.563595E-05
       215 -1.041559E-06 -1.782072E+00 -4.781715E-01
       216 -3.162962E-06  2.100329E+00  7.318832E-06
       217  4.262021E-06 -1.782032E+00  4.781695E-01
       218  4.155003E-07 -1.590088E+00 -3.160395E-06
       250 -1.616670E-04 -8.321187E+01 -1.833033E+00
       251 -3.309583E-02  3.753175E+01 -4.521439E-03
       252 -6.394713E-03  5.535942E+01  1.378840E-03
       253  3.706718E-02  3.753244E+01 -1.052466E-02
       254  3.830384E-04 -8.330566E+01  1.844303E+00
       255  2.242352E-06 -1.657036E+00 -4.133726E-05
       256  5.755729E-07 -3.564062E+00  9.563318E-01
       257  4.939316E-06 -3.564104E+00 -1.815817E-05
       258 -4.447617E-07  4.200662E+00  1.627672E-05
       259 -4.721234E-06 -3.564104E+00 -1.834577E-05
       260  1.153633E-06 -3.564154E+00 -9.563400E-01
       261 -3.394043E-07 -3.180180E+00 -6.376002E-06

 displacements (vx,vy,vz) for set NALL and time  0.2000000E-01

         5  0.000000E+00  0.000000E+00  0.000000E+00
         6  0.000000E+00  0.000000E+00  0.000000E+00
         7  0.000000E+00  0.000000E+00  0.000000E+00
         8  0.000000E+00  0.000000E+00  0.000000E+00
        21  0.000000E+00  0.000000E+00  0.000000E+00
        22  0.000000E+00  0.000000E+00  0.000000E+00
        23  0.000000E+00  0.000000E+00  0.000000E+00
        24  0.000000E+00  0.000000E+00  0.000000E+00
        25  0.000000E+00  0.000000E+00  0.000000E+00
        26  0.000000E+00  0.000000E+00  0.000000E+00
        27  0.000000E+00  0.000000E+00  0.000000E+00
        28  0.000000E+00  0.000000E+00  0.000000E+00
        29  0.000000E+00  0.000000E+00  0.000000E+00
        30  0.000000E+00  0.000000E+00  0.000000E+00
        31  0.000000E+00  0.000000E+00  0.000000E+00
        32  0.000000E+00  0.000000E+00  0.000000E+00
        44 -9.637506E-05  9.855518E-04 -1.439088E-04
        45 -2.247049E-05  7.671876E-04 -2.316489E-04
        46  2.595123E-05  5.622725E-04 -2.653947E-04
        47 -3.291739E-05  2.278976E-04 -1.747569E-04
        48  3.291101E-05  2.278928E-04 -1.747326E-04
        49 -2.596047E-05  5.622950E-04 -2.653702E-04
        50  2.237987E-05  7.671983E-04 -2.316466E-04
        51  9.610554E-05  9.858445E-04 -1.439005E-04
        74  9.816395E-05  9.826866E-04  1.438460E-04
        75  2.370419E-05  7.656799E-04  2.316215E-04
        76 -2.694599E-05  5.634159E-04  2.654779E-04
        77  3.253502E-05  2.283730E-04  1.747688E-04
        89 -9.815534E-05  9.826865E-04  1.438683E-04
        90 -2.379629E-05  7.656359E-04  2.316302E-04
        91  2.698066E-05  5.634519E-04  2.654733E-04
        92 -3.253306E-05  2.283884E-04  1.747786E-04
        98  0.000000E+00  0.000000E+00  0.000000E+00
        99  0.000000E+00  0.000000E+00  0.000000E+00
       100  0.000000E+00  0.000000E+00  0.000000E+00
       101  0.000000E+00  0.000000E+00  0.000000E+00
       102  0.000000E+00  0.000000E+00  0.000000E+00
       124  4.538887E-06  9.104168E-04 -1.356118E-04
       125 -1.264553E-07  1.086540E-03 -1.423005E-04
       126 -4.767493E-06  9.103164E-04 -1.355928E-04
       127 -3.482984E-08  7.999684E-04 -2.565051E-04
       128 -2.370223E-06  5.894622E-04 -2.848964E-04
       129 -1.804553E-08  5.472096E-04 -2.904620E-04
       130  2.340260E-06  5.894406E-04 -2.849113E-04
       131 -3.754289E-10  2.310057E-04 -1.696772E-04
       153  7.863009E-05  1.177419E-03 -6.397407E-05
       154  7.819746E-08  1.045768E-03 -1.469439E-08
       155 -7.923561E-05  1.178528E-03  6.404806E-05
       156 -2.792854E-07  8.653458E-04 -1.708477E-07
       157 -1.575924E-05  4.881038E-04 -1.143170E-04
       158  1.968285E-07  4.979226E-04 -7.682906E-08
       159  1.586886E-05  4.880549E-04  1.143119E-04
       160  5.197291E-08  1.891980E-04 -8.290597E-09
       182  3.058063E-06  9.115249E-04  1.356347E-04
       183 -8.597379E-08  1.084811E-03  1.422237E-04
       184 -3.117610E-06  9.115973E-04  1.356886E-04
       185  5.281359E-09  7.997425E-04  2.568481E-04
       186 -2.254787E-06  5.891701E-04  2.848961E-04
       187 -3.026963E-08  5.473028E-04  2.905727E-04
       188  2.235690E-06  5.891737E-04  2.848830E-04
       189  6.014540E-09  2.311185E-04  1.697201E-04
       211  7.926868E-05  1.178489E-03  6.395685E-05
       212 -1.399255E-07  1.045778E-03 -1.611606E-08
       213 -7.877046E-05  1.177605E-03 -6.384279E-05
       214  2.588295E-07  8.654107E-04 -1.375781E-07
       215 -1.588191E-05  4.880717E-04  1.143434E-04
       216 -2.355130E-07  4.979007E-04 -5.195178E-08
       217  1.572881E-05  4.880953E-04 -1.143166E-04
       218 -5.700511E-08  1.892056E-04 -5.686983E-09
       250 -4.145547E-08  1.174292E-03 -6.347378E-05
       251 -8.854673E-07  7.426188E-04  8.569439E-09