    1C
    1UUSER                                                              
    1UDATE              15.july.2018                                    
    1UTIME              19:59:03                                        
    1UHOST                                                              
    1UPGM               CalculiX                                        
    1UVERSION           Version 2.13                             
    1UCOMPILETIME       jue jun 14 00:40:39 CEST 2018                    
    1UDIR                                                               
    1UDBN                                                               
    1UMAT    1EL                                                        
    2C                            81                                     1
 -1         5 0.00000E+00 0.00000E+00 8.00000E+00
 -1         6 1.00000E+00 0.00000E+00 8.00000E+00
 -1         7 1.00000E+00 1.00000E+00 8.00000E+00
 -1         8 0.00000E+00 1.00000E+00 8.00000E+00
 -1        21 2.50000E-01 0.00000E+00 8.00000E+00
 -1        22 5.00000E-01 0.00000E+00 8.00000E+00
 -1        23 7.50000E-01 0.00000E+00 8.00000E+00
 -1        24 1.00000E+00 2.50000E-01 8.00000E+00
 -1        25 1.00000E+00 5.00000E-01 8.00000E+00
 -1        26 1.00000E+00 7.50000E-01 8.00000E+00
 -1        27 7.50000E-01 1.00000E+00 8.00000E+00
 -1        28 5.00000E-01 1.00000E+00 8.00000E+00
 -1        29 2.50000E-01 1.00000E+00 8.00000E+00
 -1        30 0.00000E+00 7.50000E-01 8.00000E+00
 -1        31 0.00000E+00 5.00000E-01 8.00000E+00
 -1        32 0.00000E+00 2.50000E-01 8.00000E+00
 -1        44 1.00000E+00 0.00000E+00 6.00000E+00
 -1        45 1.00000E+00 0.00000E+00 6.50000E+00
 -1        46 1.00000E+00 0.00000E+00 7.00000E+00
 -1        47 1.00000E+00 0.00000E+00 7.50000E+00
 -1        48 0.00000E+00 0.00000E+00 7.50000E+00
 -1        49 0.00000E+00 0.00000E+00 7.00000E+00
 -1        50 0.00000E+00 0.00000E+00 6.50000E+00
 -1        51 0.00000E+00 0.00000E+00 6.00000E+00
 -1        74 1.00000E+00 1.00000E+00 6.00000E+00
 -1        75 1.00000E+00 1.00000E+00 6.50000E+00
 -1        76 1.00000E+00 1.00000E+00 7.00000E+00
 -1        77 1.00000E+00 1.00000E+00 7.50000E+00
 -1        89 0.00000E+00 1.00000E+00 6.00000E+00
 -1        90 0.00000E+00 1.00000E+00 6.50000E+00
 -1        91 0.00000E+00 1.00000E+00 7.00000E+00
 -1        92 0.00000E+00 1.00000E+00 7.50000E+00
 -1        98 5.00000E-01 2.50000E-01 8.00000E+00
 -1        99 2.50000E-01 5.00000E-01 8.00000E+00
 -1       100 5.00000E-01 5.00000E-01 8.00000E+00
 -1       101 7.50000E-01 5.00000E-01 8.00000E+00
 -1       102 5.00000E-01 7.50000E-01 8.00000E+00
 -1       124 2.50000E-01 0.00000E+00 6.00000E+00
 -1       125 5.00000E-01 0.00000E+00 6.00000E+00
 -1       126 7.50000E-01 0.00000E+00 6.00000E+00
 -1       127 5.00000E-01 0.00000E+00 6.50000E+00
 -1       128 2.50000E-01 0.00000E+00 7.00000E+00
 -1       129 5.00000E-01 0.00000E+00 7.00000E+00
 -1       130 7.50000E-01 0.00000E+00 7.00000E+00
 -1       131 5.00000E-01 0.00000E+00 7.50000E+00
 -1       153 1.00000E+00 2.50000E-01 6.00000E+00
 -1       154 1.00000E+00 5.00000E-01 6.00000E+00
 -1       155 1.00000E+00 7.50000E-01 6.00000E+00
 -1       156 1.00000E+00 5.00000E-01 6.50000E+00
 -1       157 1.00000E+00 2.50000E-01 7.00000E+00
 -1       158 1.00000E+00 5.00000E-01 7.00000E+00
 -1       159 1.00000E+00 7.50000E-01 7.00000E+00
 -1       160 1.00000E+00 5.00000E-01 7.50000E+00
 -1       182 7.50000E-01 1.00000E+00 6.00000E+00
 -1       183 5.00000E-01 1.00000E+00 6.00000E+00
 -1       184 2.50000E-01 1.00000E+00 6.00000E+00
 -1       185 5.00000E-01 1.00000E+00 6.50000E+00
 -1       186 7.50000E-01 1.00000E+00 7.00000E+00
 -1       187 5.00000E-01 1.00000E+00 7.00000E+00
 -1       188 2.50000E-01 1.00000E+00 7.00000E+00
 -1       189 5.00000E-01 1.00000E+00 7.50000E+00
 -1       211 0.00000E+00 7.50000E-01 6.00000E+00
 -1       212 0.00000E+00 5.00000E-01 6.00000E+00
 -1       213 0.00000E+00 2.50000E-01 6.00000E+00
 -1       214 0.00000E+00 5.00000E-01 6.50000E+00
 -1       215 0.00000E+00 7.50000E-01 7.00000E+00
 -1       216 0.00000E+00 5.00000E-01 7.00000E+00
 -1       217 0.00000E+00 2.50000E-01 7.00000E+00
 -1       218 0.00000E+00 5.00000E-01 7.50000E+00
 -1       250 5.00000E-01 2.50000E-01 6.00000E+00
 -1       251 2.50000E-01 5.00000E-01 6.00000E+00
 -1       252 5.00000E-01 5.00000E-01 6.00000E+00
 -1       253 7.50000E-01 5.00000E-01 6.00000E+00
 -1       254 5.00000E-01 7.50000E-01 6.00000E+00
 -1       255 5.00000E-01 5.00000E-01 6.50000E+00
 -1       256 5.00000E-01 2.50000E-01 7.00000E+00
 -1       257 2.50000E-01 5.00000E-01 7.00000E+00
 -1       258 5.00000E-01 5.00000E-01 7.00000E+00
 -1       259 7.50000E-01 5.00000E-01 7.00000E+00
 -1       260 5.00000E-01 7.50000E-01 7.00000E+00
 -1       261 5.00000E-01 5.00000E-01 7.50000E+00
 -3
    3C                             8                                     1
 -1        25    4    0    1
 -2        51       125       252       212        49       129       258       216       124       250
 -2       251       213        50       127       255       214       128       256       257       217
 -1        26    4    0    1
 -2       125        44       154       252       129        46       158       258       126       153
 -2       253       250       127        45       156       255       130       157       259       256
 -1        27    4    0    1
 -2       212       252       183        89       216       258       187        91       251       254
 -2       184       211       214       255       185        90       257       260       188       215
 -1        28    4    0    1
 -2       252       154        74       183       258       158        76       187       253       155
 -2       182       254       255       156        75       185       259       159       186       260
 -1        29    4    0    1
 -2        49       129       258       216         5        22       100        31       128       256
 -2       257       217        48       131       261       218        21        98        99        32
 -1        30    4    0    1
 -2       129        46       158       258        22         6        25       100       130       157
 -2       259       256       131        47       160       261        23        24       101        98
 -1        31    4    0    1
 -2       216       258       187        91        31       100        28         8       257       260
 -2       188       215       218       261       189        92        99       102        29        30
 -1        32    4    0    1
 -2       258       158        76       187       100        25         7        28       259       159
 -2       186       260       261       160        77       189       101        26        27       102
 -3
    1PSTEP                         1           1           1          
  100CL  101 5.00000E-03          81                     1    1           1
 -4  DISP        4    1
 -5  D1          1    2    1    0
 -5  D2          1    2    2    0
 -5  D3          1    2    3    0
 -5  ALL         1    2    0    0    1ALL
 -1         5 0.00000E+00 0.00000E+00 0.00000E+00
 -1         6 0.00000E+00 0.00000E+00 0.00000E+00
 -1         7 0.00000E+00 0.00000E+00 0.00000E+00
 -1         8 0.00000E+00 0.00000E+00 0.00000E+00
 -1        21 0.00000E+00 0.00000E+00 0.00000E+00
 -1        22 0.00000E+00 0.00000E+00 0.00000E+00
 -1        23 0.00000E+00 0.00000E+00 0.00000E+00
 -1        24 0.00000E+00 0.00000E+00 0.00000E+00
 -1        25 0.00000E+00 0.00000E+00 0.00000E+00
 -1        26 0.00000E+00 0.00000E+00 0.00000E+00
 -1        27 0.00000E+00 0.00000E+00 0.00000E+00
 -1        28 0.00000E+00 0.00000E+00 0.00000E+00
 -1        29 0.00000E+00 0.00000E+00 0.00000E+00
 -1        30 0.00000E+00 0.00000E+00 0.00000E+00
 -1        31 0.00000E+00 0.00000E+00 0.00000E+00
 -1        32 0.00000E+00 0.00000E+00 0.00000E+00
 -1        44-6.04689E-05-3.46668E-03 4.48598E-04
 -1        45 5.66519E-05-2.56281E-03 7.85963E-04
 -1        46-4.75395E-05-1.79544E-03 9.49362E-04
 -1        47 1.31014E-04-6.74973E-04 5.43214E-04
 -1        48-1.31013E-04-6.74973E-04 5.43212E-04
 -1        49 4.75446E-05-1.79544E-03 9.49358E-04
 -1        50-5.66412E-05-2.56281E-03 7.85956E-04
 -1        51 6.04882E-05-3.46667E-03 4.48588E-04
 -1        74 3.20118E-04-4.41448E-03-4.94531E-04
 -1        75 1.91795E-04-2.97339E-03-7.85097E-04
 -1        76-1.10803E-04-1.59704E-03-9.49983E-04
 -1        77-2.08033E-04-5.26491E-04-5.58209E-04
 -1        89-3.20098E-04-4.41448E-03-4.94540E-04
 -1        90-1.91784E-04-2.97340E-03-7.85103E-04
 -1        91 1.10808E-04-1.59704E-03-9.49987E-04
 -1        92 2.08035E-04-5.26492E-04-5.58211E-04
 -1        98 0.00000E+00 0.00000E+00 0.00000E+00
 -1        99 0.00000E+00 0.00000E+00 0.00000E+00
 -1       100 0.00000E+00 0.00000E+00 0.00000E+00
 -1       101 0.00000E+00 0.00000E+00 0.00000E+00
 -1       102 0.00000E+00 0.00000E+00 0.00000E+00
 -1       124 1.48363E-04-2.96660E-03 4.29800E-04
 -1       125 9.11015E-09-3.58901E-03 4.48724E-04
 -1       126-1.48344E-04-2.96660E-03 4.29805E-04
 -1       127 5.20888E-09-2.56240E-03 9.03437E-04
 -1       128-8.87258E-06-1.95289E-03 9.48255E-04
 -1       129 2.43221E-09-1.81490E-03 9.41662E-04
 -1       130 8.87740E-06-1.95289E-03 9.48257E-04
 -1       131 4.98585E-10-7.36476E-04 5.56421E-04
 -1       153 7.01759E-05-3.63645E-03 1.91323E-04
 -1       154-1.20187E-04-2.50453E-03-2.08045E-05
 -1       155-6.55019E-05-3.89001E-03-2.38015E-04
 -1       156-1.20350E-04-2.78912E-03-6.46265E-05
 -1       157-2.05261E-05-1.50930E-03 3.92420E-04
 -1       158 8.84911E-05-1.56745E-03-2.94342E-05
 -1       159 4.67905E-05-1.47574E-03-4.11094E-04
 -1       160 3.98419E-05-6.56526E-04 4.89626E-06
 -1       182 1.14286E-04-2.56252E-03-4.71223E-04
 -1       183 9.03580E-09-4.35533E-03-4.76455E-04
 -1       184-1.14268E-04-2.56252E-03-4.71227E-04
 -1       185 5.28767E-09-2.83314E-03-8.73620E-04
 -1       186-4.40161E-05-2.16248E-03-9.82735E-04
 -1       187 2.37195E-09-1.83201E-03-9.63806E-04
 -1       188 4.40209E-05-2.16248E-03-9.82737E-04
 -1       189 4.99108E-10-7.19950E-04-5.64533E-04
 -1       211 6.55197E-05-3.89001E-03-2.38023E-04
 -1       212 1.20205E-04-2.50453E-03-2.08119E-05
 -1       213-7.01576E-05-3.63645E-03 1.91315E-04
 -1       214 1.20362E-04-2.78912E-03-6.46329E-05
 -1       215-4.67854E-05-1.47574E-03-4.11099E-04
 -1       216-8.84867E-05-1.56745E-03-2.94389E-05
 -1       217 2.05312E-05-1.50930E-03 3.92415E-04
 -1       218-3.98403E-05-6.56526E-04 4.89394E-06
 -1       250 9.57577E-09-4.08203E-03 1.74441E-04
 -1       251 3.05062E-05-2.57256E-03-1.04095E-05
 -1       252 9.61422E-09-3.12240E-03-1.58814E-05
 -1       253-3.04880E-05-2.57256E-03-1.04050E-05
 -1       254 9.41101E-09-4.41288E-03-2.54057E-04
 -1       255 5.21635E-09-2.59980E-03-3.20622E-05
 -1       256 2.56127E-09-1.60722E-03 3.95703E-04
 -1       257-4.11963E-05-1.74938E-03-1.20060E-05
 -1       258 2.69183E-09-1.79005E-03-1.45404E-05
 -1       259 4.12013E-05-1.74938E-03-1.20039E-05
 -1       260 2.55924E-09-1.62239E-03-4.18330E-04
 -1       261 6.27699E-10-7.17098E-04-1.97097E-06
 -3
    1PSTEP                         2           2           1          
  100CL  102 1.00000E-02          81                     1    2           1
 -4  DISP        4    1
 -5  D1          1    2    1    0
 -5  D2          1    2    2    0
 -5  D3          1    2    3    0
 -5  ALL         1    2    0    0    1ALL
 -1         5 0.00000E+00 0.00000E+00 0.00000E+00
 -1         6 0.00000E+00 0.00000E+00 0.00000E+00
 -1         7 0.00000E+00 0.00000E+00 0.00000E+00
 -1         8 0.00000E+00 0.00000E+00 0.00000E+00
 -1        21 0.00000E+00 0.00000E+00 0.00000E+00
 -1        22 0.00000E+00 0.00000E+00 0.00000E+00
 -1        23 0.00000E+00 0.00000E+00 0.00000E+00
 -1        24 0.00000E+00 0.00000E+00 0.00000E+00
 -1        25 0.00000E+00 0.00000E+00 0.00000E+00
 -1        26 0.00000E+00 0.00000E+00 0.00000E+00
 -1        27 0.00000E+00 0.00000E+00 0.00000E+00
 -1        28 0.00000E+00 0.00000E+00 0.00000E+00
 -1        29 0.00000E+00 0.00000E+00 0.00000E+00
 -1        30 0.00000E+00 0.00000E+00 0.00000E+00
 -1        31 0.00000E+00 0.00000E+00 0.00000E+00
 -1        32 0.00000E+00 0.00000E+00 0.00000E+00
 -1        44-1.49004E-04 1.61126E-03-2.33940E-04
 -1        45-3.40696E-05 1.25055E-03-3.77137E-04
 -1        46 4.08743E-05 9.13153E-04-4.32338E-04
 -1        47-5.43215E-05 3.69411E-04-2.84009E-04
 -1        48 5.43280E-05 3.69420E-04-2.84009E-04
 -1        49-4.08600E-05 9.13155E-04-4.32323E-04
 -1        50 3.41830E-05 1.25049E-03-3.77181E-04
 -1        51 1.49197E-04 1.61110E-03-2.34001E-04
 -1        74 1.51995E-04 1.61092E-03 2.34264E-04
 -1        75 3.53778E-05 1.24992E-03 3.77257E-04
 -1        76-4.15702E-05 9.13777E-04 4.32345E-04
 -1        77 5.40051E-05 3.69473E-04 2.84078E-04
 -1        89-1.51744E-04 1.61113E-03 2.34171E-04
 -1        90-3.53066E-05 1.24991E-03 3.77184E-04
 -1        91 4.15681E-05 9.13786E-04 4.32364E-04
 -1        92-5.40067E-05 3.69450E-04 2.84071E-04
 -1        98 0.00000E+00 0.00000E+00 0.00000E+00
 -1        99 0.00000E+00 0.00000E+00 0.00000E+00
 -1       100 0.00000E+00 0.00000E+00 0.00000E+00
 -1       101 0.00000E+00 0.00000E+00 0.00000E+00
 -1       102 0.00000E+00 0.00000E+00 0.00000E+00
 -1       124 4.13427E-06 1.47871E-03-2.20509E-04
 -1       125 1.16912E-07 1.76981E-03-2.31317E-04
 -1       126-3.94826E-06 1.47873E-03-2.20525E-04
 -1       127 4.20283E-08 1.30160E-03-4.17179E-04
 -1       128-3.18405E-06 9.59369E-04-4.63512E-04
 -1       129 2.62653E-08 8.89321E-04-4.72157E-04
 -1       130 3.22353E-06 9.59382E-04-4.63514E-04
 -1       131 9.15644E-10 3.75395E-04-2.76019E-04
 -1       153 1.23930E-04 1.91674E-03-1.03892E-04
 -1       154 1.18948E-06 1.69235E-03 1.83096E-07
 -1       155-1.25143E-04 1.91722E-03 1.04134E-04
 -1       156 3.75755E-07 1.40651E-03 8.24229E-08
 -1       157-2.47073E-05 7.92706E-04-1.86024E-04
 -1       158-3.05031E-07 8.09823E-04 4.77901E-08
 -1       159 2.48975E-05 7.92896E-04 1.86174E-04
 -1       160-1.45692E-07 3.08291E-04-4.03057E-08
 -1       182 4.64131E-06 1.47849E-03 2.20683E-04
 -1       183 1.30732E-07 1.77134E-03 2.31474E-04
 -1       184-4.42110E-06 1.47854E-03 2.20717E-04
 -1       185 3.04610E-08 1.30288E-03 4.17565E-04
 -1       186-3.32648E-06 9.60003E-04 4.63668E-04
 -1       187 1.20954E-08 8.89567E-04 4.72463E-04
 -1       188 3.34464E-06 9.60021E-04 4.63660E-04
 -1       189-4.59646E-09 3.75382E-04 2.76105E-04
 -1       211 1.25294E-04 1.91733E-03 1.04080E-04
 -1       212-1.08049E-06 1.69227E-03 3.54708E-08
 -1       213-1.23835E-04 1.91658E-03-1.03871E-04
 -1       214-3.35038E-07 1.40652E-03 1.39469E-08
 -1       215-2.48678E-05 7.92872E-04 1.86150E-04
 -1       216 3.53153E-07 8.09788E-04 1.91202E-08
 -1       217 2.47502E-05 7.92701E-04-1.86064E-04
 -1       218 1.52047E-07 3.08288E-04-4.21879E-08
 -1       250 4.00549E-08 1.91030E-03-1.03074E-04
 -1       251-5.32411E-07 1.20972E-03 3.69701E-08
 -1       252-5.03289E-08 1.54249E-03 7.69236E-08
 -1       253 5.56146E-07 1.20977E-03 1.38218E-07
 -1       254 4.70960E-08 1.91071E-03 1.03452E-04
 -1       255 2.78065E-08 1.37478E-03 1.44485E-07
 -1       256 1.16801E-08 7.83436E-04-2.07257E-04
 -1       257 1.95718E-07 9.13884E-04 6.24654E-08
 -1       258 8.51348E-10 8.12660E-04 7.53379E-08
 -1       259-1.77244E-07 9.13900E-04 7.10678E-08
 -1       260 4.70605E-09 7.83629E-04 2.07353E-04
 -1       261 9.34134E-09 3.48515E-04 6.60110E-09
 -3
    1PSTEP                         3           3           1          
  100CL  103 1.50000E-02          81                     1    3           1
 -4  DISP        4    1
 -5  D1          1    2    1    0
 -5  D2          1    2    2    0
 -5  D3          1    2    3    0
 -5  ALL         1    2    0    0    1ALL
 -1         5 0.00000E+00 0.00000E+00 0.00000E+00
 -1         6 0.00000E+00 0.00000E+00 0.00000E+00
 -1         7 0.00000E+00 0.00000E+00 0.00000E+00
 -1         8 0.00000E+00 0.00000E+00 0.00000E+00
 -1        21 0.00000E+00 0.00000E+00 0.00000E+00
 -1        22 0.00000E+00 0.00000E+00 0.00000E+00
 -1        23 0.00000E+00 0.00000E+00 0.00000E+00
 -1        24 0.00000E+00 0.00000E+00 0.00000E+00
 -1        25 0.00000E+00 0.00000E+00 0.00000E+00
 -1        26 0.00000E+00 0.00000E+00 0.00000E+00
 -1        27 0.00000E+00 0.00000E+00 0.00000E+00
 -1        28 0.00000E+00 0.00000E+00 0.00000E+00
 -1        29 0.00000E+00 0.00000E+00 0.00000E+00
 -1        30 0.00000E+00 0.00000E+00 0.00000E+00
 -1        31 0.00000E+00 0.00000E+00 0.00000E+00
 -1        32 0.00000E+00 0.00000E+00 0.00000E+00
 -1        44 1.19854E-04-1.27618E-03 1.85539E-04
 -1        45 2.71490E-05-9.90954E-04 2.98919E-04
 -1        46-3.25500E-05-7.23524E-04 3.42245E-04
 -1        47 4.29790E-05-2.92894E-04 2.25153E-04
 -1        48-4.29784E-05-2.92878E-04 2.25120E-04
 -1        49 3.25225E-05-7.23493E-04 3.42215E-04
 -1        50-2.70014E-05-9.91000E-04 2.98914E-04
 -1        51-1.19653E-04-1.27635E-03 1.85487E-04
 -1        74-1.22034E-04-1.27437E-03-1.85456E-04
 -1        75-2.82639E-05-9.89892E-04-2.98847E-04
 -1        76 3.31859E-05-7.24070E-04-3.42225E-04
 -1        77-4.26116E-05-2.93193E-04-2.25140E-04
 -1        89 1.22285E-04-1.27413E-03-1.85497E-04
 -1        90 2.84222E-05-9.89843E-04-2.98853E-04
 -1        91-3.31979E-05-7.24079E-04-3.42254E-04
 -1        92 4.26170E-05-2.93207E-04-2.25173E-04
 -1        98 0.00000E+00 0.00000E+00 0.00000E+00
 -1        99 0.00000E+00 0.00000E+00 0.00000E+00
 -1       100 0.00000E+00 0.00000E+00 0.00000E+00
 -1       101 0.00000E+00 0.00000E+00 0.00000E+00
 -1       102 0.00000E+00 0.00000E+00 0.00000E+00
 -1       124-3.67967E-06-1.17183E-03 1.74780E-04
 -1       125 1.70340E-07-1.40238E-03 1.83358E-04
 -1       126 3.90787E-06-1.17184E-03 1.74840E-04
 -1       127 1.79398E-08-1.03165E-03 3.30370E-04
 -1       128 2.60450E-06-7.60010E-04 3.67273E-04
 -1       129 3.92183E-08-7.04512E-04 3.74279E-04
 -1       130-2.56848E-06-7.60005E-04 3.67278E-04
 -1       131-6.52975E-09-2.97454E-04 2.18704E-04
 -1       153-9.97455E-05-1.52051E-03 8.24073E-05
 -1       154-4.78141E-07-1.34608E-03 2.16045E-08
 -1       155 1.00728E-04-1.51956E-03-8.24127E-05
 -1       156-1.48669E-08-1.11497E-03 1.45213E-07
 -1       157 2.00707E-05-6.28277E-04 1.47371E-04
 -1       158 1.20604E-07-6.41727E-04 5.79418E-08
 -1       159-2.02191E-05-6.28549E-04-1.47349E-04
 -1       160 1.93815E-08-2.43931E-04 5.47149E-09
 -1       182-4.85707E-06-1.17240E-03-1.74764E-04
 -1       183 1.80623E-07-1.40198E-03-1.83354E-04
 -1       184 5.11824E-06-1.17237E-03-1.74807E-04
 -1       185 3.05224E-08-1.03189E-03-3.30666E-04
 -1       186 2.91523E-06-7.59917E-04-3.67280E-04
 -1       187 4.08363E-08-7.04540E-04-3.74396E-04
 -1       188-2.86943E-06-7.59902E-04-3.67285E-04
 -1       189-3.69965E-09-2.97405E-04-2.18712E-04
 -1       211-1.00595E-04-1.51938E-03-8.24825E-05
 -1       212 6.19039E-07-1.34608E-03 4.47548E-08
 -1       213 9.98461E-05-1.52067E-03 8.23493E-05
 -1       214 4.33966E-08-1.11495E-03 8.87667E-08
 -1       215 2.02613E-05-6.28568E-04-1.47373E-04
 -1       216-5.05975E-08-6.41729E-04 1.50340E-08
 -1       217-2.00349E-05-6.28249E-04 1.47344E-04
 -1       218-1.19514E-08-2.43927E-04 2.60146E-09
 -1       250 5.99374E-08-1.51311E-03 8.18193E-05
 -1       251-1.24314E-07-9.57839E-04 2.05117E-08
 -1       252-8.14939E-08-1.22259E-03-1.90709E-08
 -1       253 1.37481E-07-9.57836E-04-3.36428E-08
 -1       254 6.32727E-08-1.51369E-03-8.17909E-05
 -1       255 4.36812E-08-1.09029E-03-1.21620E-08
 -1       256 1.22231E-08-6.20457E-04 1.64331E-04
 -1       257 5.13851E-08-7.24573E-04-2.62176E-08
 -1       258-8.20660E-09-6.43058E-04-4.59032E-09
 -1       259-3.34061E-08-7.24572E-04 5.88672E-09
 -1       260 1.35014E-08-6.20303E-04-1.64339E-04
 -1       261 1.37382E-08-2.76003E-04-9.02917E-10
 -3
    1PSTEP                         4           4           1          
  100CL  104 2.00000E-02          81                     1    4           1
 -4  DISP        4    1
 -5  D1          1    2    1    0
 -5  D2          1    2    2    0
 -5  D3          1    2    3    0
 -5  ALL         1    2    0    0    1ALL
 -1         5 0.00000E+00 0.00000E+00 0.00000E+00
 -1         6 0.00000E+00 0.00000E+00 0.00000E+00
 -1         7 0.00000E+00 0.00000E+00 0.00000E+00
 -1         8 0.00000E+00 0.00000E+00 0.00000E+00
 -1        21 0.00000E+00 0.00000E+00 0.00000E+00
 -1        22 0.00000E+00 0.00000E+00 0.00000E+00
 -1        23 0.00000E+00 0.00000E+00 0.00000E+00
 -1        24 0.00000E+00 0.00000E+00 0.00000E+00
 -1        25 0.00000E+00 0.00000E+00 0.00000E+00
 -1        26 0.00000E+00 0.00000E+00 0.00000E+00
 -1        27 0.00000E+00 0.00000E+00 0.00000E+00
 -1        28 0.00000E+00 0.00000E+00 0.00000E+00
 -1        29 0.00000E+00 0.00000E+00 0.00000E+00
 -1        30 0.00000E+00 0.00000E+00 0.00000E+00
 -1        31 0.00000E+00 0.00000E+00 0.00000E+00
 -1        32 0.00000E+00 0.00000E+00 0.00000E+00
 -1        44-9.66557E-05 9.85612E-04-1.43862E-04
 -1        45-2.32505E-05 7.66388E-04-2.31871E-04
 -1        46 2.62319E-05 5.62614E-04-2.65556E-04
 -1        47-3.27181E-05 2.28007E-04-1.74702E-04
 -1        48 3.27122E-05 2.27992E-04-1.74669E-04
 -1        49-2.62136E-05 5.62602E-04-2.65522E-04
 -1        50 2.31272E-05 7.66399E-04-2.31867E-04
 -1        51 9.65700E-05 9.85729E-04-1.43876E-04
 -1        74 9.14635E-05 9.91221E-04 1.43855E-04
 -1        75 2.02369E-05 7.69381E-04 2.31842E-04
 -1        76-2.51559E-05 5.61493E-04 2.65519E-04
 -1        77 3.35001E-05 2.27165E-04 1.74676E-04
 -1        89-9.15814E-05 9.91110E-04 1.43866E-04
 -1        90-2.03763E-05 7.69334E-04 2.31849E-04
 -1        91 2.51553E-05 5.61501E-04 2.65544E-04
 -1        92-3.35121E-05 2.27173E-04 1.74703E-04
 -1        98 0.00000E+00 0.00000E+00 0.00000E+00
 -1        99 0.00000E+00 0.00000E+00 0.00000E+00
 -1       100 0.00000E+00 0.00000E+00 0.00000E+00
 -1       101 0.00000E+00 0.00000E+00 0.00000E+00
 -1       102 0.00000E+00 0.00000E+00 0.00000E+00
 -1       124 5.89751E-06 9.10577E-04-1.35488E-04
 -1       125-1.26020E-07 1.08620E-03-1.42294E-04
 -1       126-6.04452E-06 9.10578E-04-1.35547E-04
 -1       127-1.14937E-08 8.00405E-04-2.56683E-04
 -1       128-2.75538E-06 5.89457E-04-2.84902E-04
 -1       129-3.53819E-08 5.46994E-04-2.90475E-04
 -1       130 2.72338E-06 5.89451E-04-2.84904E-04
 -1       131 3.19277E-09 2.30859E-04-1.69708E-04
 -1       153 7.83845E-05 1.17608E-03-6.39091E-05
 -1       154-8.39075E-07 1.04337E-03 1.46671E-08
 -1       155-7.67798E-05 1.18193E-03 6.38683E-05
 -1       156 1.11396E-07 8.64785E-04 2.84108E-07
 -1       157-1.57074E-05 4.88387E-04-1.14342E-04
 -1       158 1.49623E-07 4.98161E-04 1.01349E-07
 -1       159 1.53297E-05 4.87155E-04 1.14292E-04
 -1       160-5.42580E-08 1.89446E-04-3.18804E-09
 -1       182 3.15989E-07 9.08693E-04 1.35530E-04
 -1       183-1.30763E-07 1.08833E-03 1.42275E-04
 -1       184-4.83979E-07 9.08697E-04 1.35578E-04
 -1       185-2.52898E-08 8.00399E-04 2.56079E-04
 -1       186-1.56010E-06 5.89866E-04 2.84930E-04
 -1       187-4.10810E-08 5.46461E-04 2.90256E-04
 -1       188 1.51306E-06 5.89857E-04 2.84930E-04
 -1       189-6.34269E-10 2.30881E-04 1.69699E-04
 -1       211 7.67226E-05 1.18182E-03 6.38759E-05
 -1       212 7.56001E-07 1.04334E-03-8.28069E-09
 -1       213-7.84302E-05 1.17617E-03-6.38758E-05
 -1       214-1.60916E-07 8.64782E-04 3.21880E-07
 -1       215-1.53640E-05 4.87161E-04 1.14320E-04
 -1       216-2.00521E-07 4.98148E-04 1.37027E-07
 -1       217 1.56831E-05 4.88366E-04-1.14319E-04
 -1       218 4.28550E-08 1.89443E-04 6.87434E-09
 -1       250-6.15582E-08 1.17502E-03-6.34539E-05
 -1       251-1.95856E-06 7.43256E-04-3.53580E-08
 -1       252 2.22154E-08 9.48012E-04 3.68637E-09
 -1       253 1.92398E-06 7.43271E-04-1.78383E-08
 -1       254-6.42984E-08 1.17133E-03 6.34930E-05
 -1       255-3.31888E-08 8.45806E-04 8.54745E-09
 -1       256-1.95052E-08 4.81188E-04-1.27469E-04
 -1       257 4.12803E-07 5.62154E-04-1.25243E-09
 -1       258-7.44747E-09 4.99091E-04-2.05281E-09
 -1       259-4.40423E-07 5.62160E-04-2.09714E-08
 -1       260-2.23045E-08 4.81967E-04 1.27492E-04
 -1       261-1.03192E-08 2.14228E-04 2.23202E-09
 -3
    1PSTEP                         5           5           1          
  100CL  105 2.50000E-02          81                     1    5           1
 -4  DISP        4    1
 -5  D1          1    2    1    0
 -5  D2          1    2    2    0
 -5  D3          1    2    3    0
 -5  ALL         1    2    0    0    1ALL
 -1         5 0.00000E+00 0.00000E+00 0.00000E+00
 -1         6 0.00000E+00 0.00000E+00 0.00000E+00
 -1         7 0.00000E+00 0.00000E+00 0.00000E+00
 -1         8 0.00000E+00 0.00000E+00 0.00000E+00
 -1        21 0.00000E+00 0.00000E+00 0.00000E+00
 -1        22 0.00000E+00 0.00000E+00 0.00000E+00
 -1        23 0.00000E+00 0.00000E+00 0.00000E+00
 -1        24 0.00000E+00 0.00000E+00 0.00000E+00
 -1        25 0.00000E+00 0.00000E+00 0.00000E+00
 -1        26 0.00000E+00 0.00000E+00 0.00000E+00
 -1        27 0.00000E+00 0.00000E+00 0.00000E+00
 -1        28 0.00000E+00 0.00000E+00 0.00000E+00
 -1        29 0.00000E+00 0.00000E+00 0.00000E+00
 -1        30 0.00000E+00 0.00000E+00 0.00000E+00
 -1        31 0.00000E+00 0.00000E+00 0.00000E+00
 -1        32 0.00000E+00 0.00000E+00 0.00000E+00
 -1        44 7.02288E-05-7.47101E-04 1.08643E-04
 -1        45 1.60146E-05-5.80090E-04 1.75103E-04
 -1        46-1.91165E-05-4.24086E-04 2.00496E-04
 -1        47 2.51215E-05-1.71684E-04 1.31876E-04
 -1        48-2.51211E-05-1.71684E-04 1.31875E-04
 -1        49 1.91229E-05-4.24085E-04 2.00493E-04
 -1        50-1.60064E-05-5.80093E-04 1.75101E-04
 -1        51-7.01671E-05-7.47145E-04 1.08630E-04
 -1        74-7.06085E-05-7.46855E-04-1.08622E-04
 -1        75-1.62474E-05-5.79907E-04-1.75070E-04
 -1        76 1.93383E-05-4.24262E-04-2.00485E-04
 -1        77-2.50455E-05-1.71740E-04-1.31879E-04
 -1        89 7.06510E-05-7.46822E-04-1.08625E-04
 -1        90 1.62567E-05-5.79911E-04-1.75067E-04
 -1        91-1.93379E-05-4.24265E-04-2.00495E-04
 -1        92 2.50442E-05-1.71741E-04-1.31883E-04
 -1        98 0.00000E+00 0.00000E+00 0.00000E+00
 -1        99 0.00000E+00 0.00000E+00 0.00000E+00
 -1       100 0.00000E+00 0.00000E+00 0.00000E+00
 -1       101 0.00000E+00 0.00000E+00 0.00000E+00
 -1       102 0.00000E+00 0.00000E+00 0.00000E+00
 -1       124-2.45941E-06-6.86560E-04 1.02350E-04
 -1       125 1.40898E-08-8.21112E-04 1.07434E-04
 -1       126 2.49860E-06-6.86545E-04 1.02334E-04
 -1       127 9.02975E-09-6.04326E-04 1.93502E-04
 -1       128 1.59889E-06-4.45214E-04 2.15114E-04
 -1       129 5.52524E-10-4.12709E-04 2.19192E-04
 -1       130-1.59392E-06-4.45213E-04 2.15120E-04
 -1       131 2.97875E-10-1.74273E-04 1.28115E-04
 -1       153-5.82531E-05-8.90194E-04 4.82453E-05
 -1       154-1.35013E-07-7.87674E-04 3.83078E-09
 -1       155 5.84795E-05-8.90694E-04-4.82243E-05
 -1       156-1.28075E-08-6.52895E-04 2.44988E-08
 -1       157 1.16677E-05-3.68191E-04 8.63050E-05
 -1       158-4.36079E-09-3.76063E-04 8.55571E-09
 -1       159-1.17077E-05-3.68131E-04-8.63048E-05
 -1       160 1.14770E-08-1.43014E-04 4.99797E-09
 -1       182-2.00609E-06-6.86619E-04-1.02334E-04
 -1       183 1.27237E-08-8.21096E-04-1.07410E-04
 -1       184 2.03490E-06-6.86610E-04-1.02338E-04
 -1       185 2.80245E-09-6.04415E-04-1.93554E-04
 -1       186 1.54374E-06-4.45195E-04-2.15112E-04
 -1       187 9.00343E-10-4.12619E-04-2.19217E-04
 -1       188-1.54144E-06-4.45195E-04-2.15117E-04
 -1       189-5.99920E-10-1.74257E-04-1.28121E-04
 -1       211-5.84638E-05-8.90674E-04-4.82467E-05
 -1       212 1.37294E-07-7.87678E-04 2.69916E-08
 -1       213 5.82796E-05-8.90223E-04 4.82344E-05
 -1       214 2.23563E-08-6.52896E-04 2.19675E-08
 -1       215 1.17107E-05-3.68134E-04-8.63058E-05
 -1       216 6.24698E-09-3.76064E-04 1.93147E-09
 -1       217-1.16621E-05-3.68190E-04 8.63043E-05
 -1       218-1.03969E-08-1.43015E-04 1.79925E-09
 -1       250 6.74163E-09-8.86080E-04 4.79340E-05
 -1       251 3.14263E-07-5.61180E-04 5.82458E-09
 -1       252-1.88346E-09-7.15923E-04 1.04493E-08
 -1       253-3.12673E-07-5.61179E-04-2.89084E-09
 -1       254 6.36219E-09-8.85559E-04-4.79145E-05
 -1       255 3.63961E-09-6.38598E-04-2.84450E-10
 -1       256 8.25698E-10-3.63497E-04 9.62488E-05
 -1       257-5.23264E-08-4.24389E-04-1.69795E-09
 -1       258 1.10376E-09-3.76749E-04-2.03437E-09
 -1       259 5.36465E-08-4.24389E-04 1.03827E-09
 -1       260 8.35745E-10-3.63568E-04-9.62493E-05
 -1       261 6.76720E-10-1.61704E-04-1.75914E-09
 -3
    1PSTEP                         6           6           1          
  100CL  106 3.00000E-02          81                     1    6           1
 -4  DISP        4    1
 -5  D1          1    2    1    0
 -5  D2          1    2    2    0
 -5  D3          1    2    3    0
 -5  ALL         1    2    0    0    1ALL
 -1         5 0.00000E+00 0.00000E+00 0.00000E+00
 -1         6 0.00000E+00 0.00000E+00 0.00000E+00
 -1         7 0.00000E+00 0.00000E+00 0.00000E+00
 -1         8 0.00000E+00 0.00000E+00 0.00000E+00
 -1        21 0.00000E+00 0.00000E+00 0.00000E+00
 -1        22 0.00000E+00 0.00000E+00 0.00000E+00
 -1        23 0.00000E+00 0.00000E+00 0.00000E+00
 -1        24 0.00000E+00 0.00000E+00 0.00000E+00
 -1        25 0.00000E+00 0.00000E+00 0.00000E+00
 -1        26 0.00000E+00 0.00000E+00 0.00000E+00
 -1        27 0.00000E+00 0.00000E+00 0.00000E+00
 -1        28 0.00000E+00 0.00000E+00 0.00000E+00
 -1        29 0.00000E+00 0.00000E+00 0.00000E+00
 -1        30 0.00000E+00 0.00000E+00 0.00000E+00
 -1        31 0.00000E+00 0.00000E+00 0.00000E+00
 -1        32 0.00000E+00 0.00000E+00 0.00000E+00
 -1        44-5.22585E-05 5.40404E-04-7.87547E-05
 -1        45-1.23414E-05 4.20114E-04-1.26953E-04
 -1        46 1.42433E-05 3.07826E-04-1.45404E-04
 -1        47-1.80287E-05 1.24699E-04-9.56641E-05