    1C
    1UUSER                                                              
    1UDATE              15.july.2018                                    
    1UTIME              19:52:42                                        
    1UHOST                                                              
    1UPGM               CalculiX                                        
    1UVERSION           Version 2.13                             
    1UCOMPILETIME       jue jun 14 00:40:39 CEST 2018                    
    1UDIR                                                               
    1UDBN                                                               
    1UMAT    1EL                                                        
    2C                            81                                     1
 -1         5 0.00000E+00 0.00000E+00 8.00000E+00
 -1         6 1.00000E+00 0.00000E+00 8.00000E+00
 -1         7 1.00000E+00 1.00000E+00 8.00000E+00
 -1         8 0.00000E+00 1.00000E+00 8.00000E+00
 -1        21 2.50000E-01 0.00000E+00 8.00000E+00
 -1        22 5.00000E-01 0.00000E+00 8.00000E+00
 -1        23 7.50000E-01 0.00000E+00 8.00000E+00
 -1        24 1.00000E+00 2.50000E-01 8.00000E+00
 -1        25 1.00000E+00 5.00000E-01 8.00000E+00
 -1        26 1.00000E+00 7.50000E-01 8.00000E+00
 -1        27 7.50000E-01 1.00000E+00 8.00000E+00
 -1        28 5.00000E-01 1.00000E+00 8.00000E+00
 -1        29 2.50000E-01 1.00000E+00 8.00000E+00
 -1        30 0.00000E+00 7.50000E-01 8.00000E+00
 -1        31 0.00000E+00 5.00000E-01 8.00000E+00
 -1        32 0.00000E+00 2.50000E-01 8.00000E+00
 -1        44 1.00000E+00 0.00000E+00 6.00000E+00
 -1        45 1.00000E+00 0.00000E+00 6.50000E+00
 -1        46 1.00000E+00 0.00000E+00 7.00000E+00
 -1        47 1.00000E+00 0.00000E+00 7.50000E+00
 -1        48 0.00000E+00 0.00000E+00 7.50000E+00
 -1        49 0.00000E+00 0.00000E+00 7.00000E+00
 -1        50 0.00000E+00 0.00000E+00 6.50000E+00
 -1        51 0.00000E+00 0.00000E+00 6.00000E+00
 -1        74 1.00000E+00 1.00000E+00 6.00000E+00
 -1        75 1.00000E+00 1.00000E+00 6.50000E+00
 -1        76 1.00000E+00 1.00000E+00 7.00000E+00
 -1        77 1.00000E+00 1.00000E+00 7.50000E+00
 -1        89 0.00000E+00 1.00000E+00 6.00000E+00
 -1        90 0.00000E+00 1.00000E+00 6.50000E+00
 -1        91 0.00000E+00 1.00000E+00 7.00000E+00
 -1        92 0.00000E+00 1.00000E+00 7.50000E+00
 -1        98 5.00000E-01 2.50000E-01 8.00000E+00
 -1        99 2.50000E-01 5.00000E-01 8.00000E+00
 -1       100 5.00000E-01 5.00000E-01 8.00000E+00
 -1       101 7.50000E-01 5.00000E-01 8.00000E+00
 -1       102 5.00000E-01 7.50000E-01 8.00000E+00
 -1       124 2.50000E-01 0.00000E+00 6.00000E+00
 -1       125 5.00000E-01 0.00000E+00 6.00000E+00
 -1       126 7.50000E-01 0.00000E+00 6.00000E+00
 -1       127 5.00000E-01 0.00000E+00 6.50000E+00
 -1       128 2.50000E-01 0.00000E+00 7.00000E+00
 -1       129 5.00000E-01 0.00000E+00 7.00000E+00
 -1       130 7.50000E-01 0.00000E+00 7.00000E+00
 -1       131 5.00000E-01 0.00000E+00 7.50000E+00
 -1       153 1.00000E+00 2.50000E-01 6.00000E+00
 -1       154 1.00000E+00 5.00000E-01 6.00000E+00
 -1       155 1.00000E+00 7.50000E-01 6.00000E+00
 -1       156 1.00000E+00 5.00000E-01 6.50000E+00
 -1       157 1.00000E+00 2.50000E-01 7.00000E+00
 -1       158 1.00000E+00 5.00000E-01 7.00000E+00
 -1       159 1.00000E+00 7.50000E-01 7.00000E+00
 -1       160 1.00000E+00 5.00000E-01 7.50000E+00
 -1       182 7.50000E-01 1.00000E+00 6.00000E+00
 -1       183 5.00000E-01 1.00000E+00 6.00000E+00
 -1       184 2.50000E-01 1.00000E+00 6.00000E+00
 -1       185 5.00000E-01 1.00000E+00 6.50000E+00
 -1       186 7.50000E-01 1.00000E+00 7.00000E+00
 -1       187 5.00000E-01 1.00000E+00 7.00000E+00
 -1       188 2.50000E-01 1.00000E+00 7.00000E+00
 -1       189 5.00000E-01 1.00000E+00 7.50000E+00
 -1       211 0.00000E+00 7.50000E-01 6.00000E+00
 -1       212 0.00000E+00 5.00000E-01 6.00000E+00
 -1       213 0.00000E+00 2.50000E-01 6.00000E+00
 -1       214 0.00000E+00 5.00000E-01 6.50000E+00
 -1       215 0.00000E+00 7.50000E-01 7.00000E+00
 -1       216 0.00000E+00 5.00000E-01 7.00000E+00
 -1       217 0.00000E+00 2.50000E-01 7.00000E+00
 -1       218 0.00000E+00 5.00000E-01 7.50000E+00
 -1       250 5.00000E-01 2.50000E-01 6.00000E+00
 -1       251 2.50000E-01 5.00000E-01 6.00000E+00
 -1       252 5.00000E-01 5.00000E-01 6.00000E+00
 -1       253 7.50000E-01 5.00000E-01 6.00000E+00
 -1       254 5.00000E-01 7.50000E-01 6.00000E+00
 -1       255 5.00000E-01 5.00000E-01 6.50000E+00
 -1       256 5.00000E-01 2.50000E-01 7.00000E+00
 -1       257 2.50000E-01 5.00000E-01 7.00000E+00
 -1       258 5.00000E-01 5.00000E-01 7.00000E+00
 -1       259 7.50000E-01 5.00000E-01 7.00000E+00
 -1       260 5.00000E-01 7.50000E-01 7.00000E+00
 -1       261 5.00000E-01 5.00000E-01 7.50000E+00
 -3
    3C                             8                                     1
 -1        25    4    0    1
 -2        51       125       252       212        49       129       258       216       124       250
 -2       251       213        50       127       255       214       128       256       257       217
 -1        26    4    0    1
 -2       125        44       154       252       129        46       158       258       126       153
 -2       253       250       127        45       156       255       130       157       259       256
 -1        27    4    0    1
 -2       212       252       183        89       216       258       187        91       251       254
 -2       184       211       214       255       185        90       257       260       188       215
 -1        28    4    0    1
 -2       252       154        74       183       258       158        76       187       253       155
 -2       182       254       255       156        75       185       259       159       186       260
 -1        29    4    0    1
 -2        49       129       258       216         5        22       100        31       128       256
 -2       257       217        48       131       261       218        21        98        99        32
 -1        30    4    0    1
 -2       129        46       158       258        22         6        25       100       130       157
 -2       259       256       131        47       160       261        23        24       101        98
 -1        31    4    0    1
 -2       216       258       187        91        31       100        28         8       257       260
 -2       188       215       218       261       189        92        99       102        29        30
 -1        32    4    0    1
 -2       258       158        76       187       100        25         7        28       259       159
 -2       186       260       261       160        77       189       101        26        27       102
 -3
    1PSTEP                         1           1           1          
  100CL  101 5.00000E-03          81                     1    1           1
 -4  DISP        4    1
 -5  D1          1    2    1    0
 -5  D2          1    2    2    0
 -5  D3          1    2    3    0
 -5  ALL         1    2    0    0    1ALL
 -1         5 0.00000E+00 0.00000E+00 0.00000E+00
 -1         6 0.00000E+00 0.00000E+00 0.00000E+00
 -1         7 0.00000E+00 0.00000E+00 0.00000E+00
 -1         8 0.00000E+00 0.00000E+00 0.00000E+00
 -1        21 0.00000E+00 0.00000E+00 0.00000E+00
 -1        22 0.00000E+00 0.00000E+00 0.00000E+00
 -1        23 0.00000E+00 0.00000E+00 0.00000E+00
 -1        24 0.00000E+00 0.00000E+00 0.00000E+00
 -1        25 0.00000E+00 0.00000E+00 0.00000E+00
 -1        26 0.00000E+00 0.00000E+00 0.00000E+00
 -1        27 0.00000E+00 0.00000E+00 0.00000E+00
 -1        28 0.00000E+00 0.00000E+00 0.00000E+00
 -1        29 0.00000E+00 0.00000E+00 0.00000E+00
 -1        30 0.00000E+00 0.00000E+00 0.00000E+00
 -1        31 0.00000E+00 0.00000E+00 0.00000E+00
 -1        32 0.00000E+00 0.00000E+00 0.00000E+00
 -1        44-5.98793E-05-3.46557E-03 4.48510E-04
 -1        45 5.68064E-05-2.56228E-03 7.85551E-04
 -1        46-4.77826E-05-1.79591E-03 9.49375E-04
 -1        47 1.30982E-04-6.75046E-04 5.43228E-04
 -1        48-1.30993E-04-6.75055E-04 5.43251E-04
 -1        49 4.77190E-05-1.79592E-03 9.49428E-04
 -1        50-5.69218E-05-2.56228E-03 7.85651E-04
 -1        51 5.95874E-05-3.46562E-03 4.48689E-04
 -1        74 3.18273E-04-4.41183E-03-4.94859E-04
 -1        75 1.90846E-04-2.97205E-03-7.84956E-04
 -1        76-1.10272E-04-1.59794E-03-9.49970E-04
 -1        77-2.07847E-04-5.26820E-04-5.58209E-04
 -1        89-3.18565E-04-4.41178E-03-4.94677E-04
 -1        90-1.90960E-04-2.97204E-03-7.84856E-04
 -1        91 1.10207E-04-1.59793E-03-9.49916E-04
 -1        92 2.07836E-04-5.26811E-04-5.58186E-04
 -1        98 0.00000E+00 0.00000E+00 0.00000E+00
 -1        99 0.00000E+00 0.00000E+00 0.00000E+00
 -1       100 0.00000E+00 0.00000E+00 0.00000E+00
 -1       101 0.00000E+00 0.00000E+00 0.00000E+00
 -1       102 0.00000E+00 0.00000E+00 0.00000E+00
 -1       124 1.49268E-04-2.96663E-03 4.29806E-04
 -1       125-1.06879E-07-3.58975E-03 4.48811E-04
 -1       126-1.49514E-04-2.96661E-03 4.29747E-04
 -1       127-7.03746E-08-2.56284E-03 9.03852E-04
 -1       128-9.15620E-06-1.95289E-03 9.48257E-04
 -1       129-1.81314E-08-1.81451E-03 9.41545E-04
 -1       130 9.10686E-06-1.95289E-03 9.48223E-04
 -1       131-3.91656E-09-7.36480E-04 5.56399E-04
 -1       153 6.98122E-05-3.63641E-03 1.91208E-04
 -1       154-1.20434E-04-2.50325E-03-2.09641E-05
 -1       155-6.52189E-05-3.88915E-03-2.38032E-04
 -1       156-1.20286E-04-2.78959E-03-6.45441E-05
 -1       157-2.05926E-05-1.50905E-03 3.92350E-04
 -1       158 8.83652E-05-1.56704E-03-2.94903E-05
 -1       159 4.67057E-05-1.47572E-03-4.11157E-04
 -1       160 3.98192E-05-6.56554E-04 4.87723E-06
 -1       182 1.14622E-04-2.56315E-03-4.71241E-04
 -1       183-1.06231E-07-4.35501E-03-4.76682E-04
 -1       184-1.14868E-04-2.56313E-03-4.71183E-04
 -1       185-7.05310E-08-2.83341E-03-8.73949E-04
 -1       186-4.41054E-05-2.16237E-03-9.82784E-04
 -1       187-1.80132E-08-1.83187E-03-9.63863E-04
 -1       188 4.40559E-05-2.16236E-03-9.82750E-04
 -1       189-3.95332E-09-7.19985E-04-5.64576E-04
 -1       211 6.48907E-05-3.88913E-03-2.37867E-04
 -1       212 1.20087E-04-2.50325E-03-2.07820E-05
 -1       213-7.01397E-05-3.63644E-03 1.91373E-04
 -1       214 1.20178E-04-2.78959E-03-6.44405E-05
 -1       215-4.67774E-05-1.47571E-03-4.11100E-04
 -1       216-8.84446E-05-1.56704E-03-2.94372E-05
 -1       217 2.05210E-05-1.50906E-03 3.92407E-04
 -1       218-3.98340E-05-6.56554E-04 4.89395E-06
 -1       250-1.05300E-07-4.08221E-03 1.74743E-04
 -1       251 3.01668E-05-2.57242E-03-1.02629E-05
 -1       252-1.03055E-07-3.12421E-03-1.49104E-05
 -1       253-3.04368E-05-2.57242E-03-1.02915E-05
 -1       254-1.05103E-07-4.41292E-03-2.54221E-04
 -1       255-7.81889E-08-2.59950E-03-3.18903E-05
 -1       256-1.71666E-08-1.60748E-03 3.95717E-04
 -1       257-4.11416E-05-1.74945E-03-1.19741E-05
 -1       258-1.49610E-08-1.79043E-03-1.46130E-05
 -1       259 4.10879E-05-1.74945E-03-1.20144E-05
 -1       260-1.70758E-08-1.62268E-03-4.18282E-04
 -1       261-7.26622E-09-7.17047E-04-2.01009E-06
 -3
    1PSTEP                         2           2           1          
  100CL  102 1.00000E-02          81                     1    2           1
 -4  DISP        4    1
 -5  D1          1    2    1    0
 -5  D2          1    2    2    0
 -5  D3          1    2    3    0
 -5  ALL         1    2    0    0    1ALL
 -1         5 0.00000E+00 0.00000E+00 0.00000E+00
 -1         6 0.00000E+00 0.00000E+00 0.00000E+00
 -1         7 0.00000E+00 0.00000E+00 0.00000E+00
 -1         8 0.00000E+00 0.00000E+00 0.00000E+00
 -1        21 0.00000E+00 0.00000E+00 0.00000E+00
 -1        22 0.00000E+00 0.00000E+00 0.00000E+00
 -1        23 0.00000E+00 0.00000E+00 0.00000E+00
 -1        24 0.00000E+00 0.00000E+00 0.00000E+00
 -1        25 0.00000E+00 0.00000E+00 0.00000E+00
 -1        26 0.00000E+00 0.00000E+00 0.00000E+00
 -1        27 0.00000E+00 0.00000E+00 0.00000E+00
 -1        28 0.00000E+00 0.00000E+00 0.00000E+00
 -1        29 0.00000E+00 0.00000E+00 0.00000E+00
 -1        30 0.00000E+00 0.00000E+00 0.00000E+00
 -1        31 0.00000E+00 0.00000E+00 0.00000E+00
 -1        32 0.00000E+00 0.00000E+00 0.00000E+00
 -1        44-1.58398E-04 1.60355E-03-2.33823E-04
 -1        45-3.88009E-05 1.24727E-03-3.77037E-04
 -1        46 4.26976E-05 9.14008E-04-4.32212E-04
 -1        47-5.30931E-05 3.70461E-04-2.84014E-04
 -1        48 5.30963E-05 3.70464E-04-2.84021E-04
 -1        49-4.26814E-05 9.14013E-04-4.32229E-04
 -1        50 3.88338E-05 1.24727E-03-3.77058E-04
 -1        51 1.58453E-04 1.60357E-03-2.33858E-04
 -1        74 1.45788E-04 1.61915E-03 2.34139E-04
 -1        75 3.13586E-05 1.25544E-03 3.77043E-04
 -1        76-3.97863E-05 9.10988E-04 4.32250E-04
 -1        77 5.52060E-05 3.68047E-04 2.84103E-04
 -1        89-1.45724E-04 1.61913E-03 2.34096E-04
 -1        90-3.13243E-05 1.25544E-03 3.77014E-04
 -1        91 3.98016E-05 9.10987E-04 4.32239E-04
 -1        92-5.52011E-05 3.68044E-04 2.84097E-04
 -1        98 0.00000E+00 0.00000E+00 0.00000E+00
 -1        99 0.00000E+00 0.00000E+00 0.00000E+00
 -1       100 0.00000E+00 0.00000E+00 0.00000E+00
 -1       101 0.00000E+00 0.00000E+00 0.00000E+00
 -1       102 0.00000E+00 0.00000E+00 0.00000E+00
 -1       124 1.30500E-05 1.48144E-03-2.20503E-04
 -1       125 2.30471E-08 1.76769E-03-2.31189E-04
 -1       126-1.29995E-05 1.48143E-03-2.20479E-04
 -1       127 1.65732E-08 1.30145E-03-4.18312E-04
 -1       128-5.05677E-06 9.58810E-04-4.63556E-04
 -1       129 5.92570E-09 8.90523E-04-4.72747E-04
 -1       130 5.07040E-06 9.58807E-04-4.63549E-04
 -1       131 1.24685E-09 3.75386E-04-2.76078E-04
 -1       153 1.27765E-04 1.90820E-03-1.03895E-04
 -1       154-1.56471E-06 1.69552E-03 8.01172E-08
 -1       155-1.23851E-04 1.92303E-03 1.04129E-04
 -1       156 6.59767E-07 1.40781E-03 9.64470E-07
 -1       157-2.57231E-05 7.94225E-04-1.86180E-04
 -1       158 1.69967E-07 8.09082E-04 3.83089E-07
 -1       159 2.47771E-05 7.91221E-04 1.86213E-04
 -1       160-2.37446E-07 3.07830E-04-1.95039E-08
 -1       182-6.32383E-07 1.47581E-03 2.20763E-04
 -1       183 3.39350E-08 1.77515E-03 2.31284E-04
 -1       184 6.97654E-07 1.47581E-03 2.20750E-04
 -1       185 1.77496E-08 1.30238E-03 4.16885E-04
 -1       186-1.99451E-06 9.60618E-04 4.63805E-04
 -1       187 7.44084E-09 8.89645E-04 4.72402E-04
 -1       188 2.00926E-06 9.60617E-04 4.63797E-04
 -1       189 1.24725E-09 3.75484E-04 2.76127E-04
 -1       211 1.23930E-04 1.92302E-03 1.04094E-04
 -1       212 1.64827E-06 1.69551E-03 3.41343E-08
 -1       213-1.27695E-04 1.90821E-03-1.03930E-04
 -1       214-6.29622E-07 1.40782E-03 9.38683E-07
 -1       215-2.47597E-05 7.91220E-04 1.86198E-04
 -1       216-1.49108E-07 8.09080E-04 3.69305E-07
 -1       217 2.57416E-05 7.94227E-04-1.86196E-04
 -1       218 2.42159E-07 3.07830E-04-2.45101E-08
 -1       250 2.60345E-08 1.91865E-03-1.02845E-04
 -1       251-4.86794E-06 1.20906E-03-7.00375E-08
 -1       252 2.95150E-08 1.54382E-03 2.84759E-08
 -1       253 4.93775E-06 1.20907E-03-5.93170E-08
 -1       254 3.22708E-08 1.91048E-03 1.03388E-04
 -1       255 1.98129E-08 1.37511E-03 1.50314E-07
 -1       256 5.90398E-09 7.82074E-04-2.07224E-04
 -1       257 1.20444E-06 9.14293E-04 3.59851E-08
 -1       258 5.51488E-09 8.12734E-04 8.00758E-08
 -1       259-1.18873E-06 9.14294E-04 4.55141E-08
 -1       260 6.58982E-09 7.84233E-04 2.07383E-04
 -1       261 2.05421E-09 3.48538E-04 8.10209E-09
 -3
    1PSTEP                         3           3           1          
  100CL  103 1.50000E-02          81                     1    3           1
 -4  DISP        4    1
 -5  D1          1    2    1    0
 -5  D2          1    2    2    0
 -5  D3          1    2    3    0
 -5  ALL         1    2    0    0    1ALL
 -1         5 0.00000E+00 0.00000E+00 0.00000E+00
 -1         6 0.00000E+00 0.00000E+00 0.00000E+00
 -1         7 0.00000E+00 0.00000E+00 0.00000E+00
 -1         8 0.00000E+00 0.00000E+00 0.00000E+00
 -1        21 0.00000E+00 0.00000E+00 0.00000E+00
 -1        22 0.00000E+00 0.00000E+00 0.00000E+00
 -1        23 0.00000E+00 0.00000E+00 0.00000E+00
 -1        24 0.00000E+00 0.00000E+00 0.00000E+00
 -1        25 0.00000E+00 0.00000E+00 0.00000E+00
 -1        26 0.00000E+00 0.00000E+00 0.00000E+00
 -1        27 0.00000E+00 0.00000E+00 0.00000E+00
 -1        28 0.00000E+00 0.00000E+00 0.00000E+00
 -1        29 0.00000E+00 0.00000E+00 0.00000E+00
 -1        30 0.00000E+00 0.00000E+00 0.00000E+00
 -1        31 0.00000E+00 0.00000E+00 0.00000E+00
 -1        32 0.00000E+00 0.00000E+00 0.00000E+00
 -1        44 1.29080E-04-1.26899E-03 1.85659E-04
 -1        45 3.14023E-05-9.87856E-04 2.99000E-04
 -1        46-3.43783E-05-7.24918E-04 3.42134E-04
 -1        47 4.17662E-05-2.94104E-04 2.25292E-04
 -1        48-4.17725E-05-2.94108E-04 2.25307E-04
 -1        49 3.43832E-05-7.24909E-04 3.42151E-04
 -1        50-3.14484E-05-9.87869E-04 2.99007E-04
 -1        51-1.29035E-04-1.26899E-03 1.85615E-04
 -1        74-1.21105E-04-1.27695E-03-1.85666E-04
 -1        75-2.69344E-05-9.92405E-04-2.98961E-04
 -1        76 3.29269E-05-7.23452E-04-3.42167E-04
 -1        77-4.30105E-05-2.92865E-04-2.25322E-04
 -1        89 1.21051E-04-1.27690E-03-1.85602E-04
 -1        90 2.69198E-05-9.92418E-04-2.98937E-04
 -1        91-3.29491E-05-7.23441E-04-3.42165E-04
 -1        92 4.30069E-05-2.92865E-04-2.25324E-04
 -1        98 0.00000E+00 0.00000E+00 0.00000E+00
 -1        99 0.00000E+00 0.00000E+00 0.00000E+00
 -1       100 0.00000E+00 0.00000E+00 0.00000E+00
 -1       101 0.00000E+00 0.00000E+00 0.00000E+00
 -1       102 0.00000E+00 0.00000E+00 0.00000E+00
 -1       124-1.13128E-05-1.17480E-03 1.75041E-04
 -1       125-3.48753E-08-1.40102E-03 1.83488E-04
 -1       126 1.12951E-05-1.17479E-03 1.75007E-04
 -1       127-1.36601E-09-1.03217E-03 3.31390E-04
 -1       128 4.13278E-06-7.59607E-04 3.67427E-04
 -1       129-1.44689E-08-7.05434E-04 3.74957E-04
 -1       130-4.14386E-06-7.59611E-04 3.67430E-04
 -1       131-3.35228E-10-2.97433E-04 2.18759E-04
 -1       153-1.03865E-04-1.51504E-03 8.25311E-05
 -1       154 1.44591E-06-1.35061E-03 5.70933E-08
 -1       155 1.01127E-04-1.52536E-03-8.25799E-05
 -1       156-1.14415E-07-1.11580E-03-4.72282E-07
 -1       157 2.10266E-05-6.30035E-04 1.47450E-04
 -1       158-4.11508E-07-6.41936E-04-1.82701E-07
 -1       159-2.04575E-05-6.27878E-04-1.47397E-04
 -1       160 5.20813E-08-2.43644E-04-6.64111E-09
 -1       182-8.86576E-07-1.17203E-03-1.75081E-04
 -1       183-6.03428E-09-1.40416E-03-1.83574E-04
 -1       184 8.52252E-07-1.17201E-03-1.75073E-04
 -1       185-1.70620E-08-1.03200E-03-3.30504E-04
 -1       186 1.95689E-06-7.60232E-04-3.67511E-04
 -1       187-2.61363E-09-7.04669E-04-3.74643E-04
 -1       188-1.96981E-06-7.60226E-04-3.67505E-04
 -1       189-2.29352E-09-2.97532E-04-2.18767E-04
 -1       211-1.01182E-04-1.52535E-03-8.25725E-05
 -1       212-1.49611E-06-1.35064E-03 9.19453E-08
 -1       213 1.03857E-04-1.51506E-03 8.25416E-05
 -1       214 9.01122E-08-1.11579E-03-4.56045E-07
 -1       215 2.04397E-05-6.27877E-04-1.47382E-04
 -1       216 3.96255E-07-6.41944E-04-1.73766E-07
 -1       217-2.10311E-05-6.30034E-04 1.47460E-04
 -1       218-5.66826E-08-2.43643E-04-2.36903E-09
 -1       250-3.08840E-08-1.51846E-03 8.17863E-05
 -1       251 3.69804E-06-9.57905E-04 1.00741E-07
 -1       252-2.58835E-08-1.22231E-03 1.11998E-08
 -1       253-3.74761E-06-9.57891E-04 8.62998E-08
 -1       254-1.58478E-08-1.51107E-03-8.19257E-05
 -1       255-1.29352E-08-1.09109E-03-1.72212E-08
 -1       256-1.06193E-08-6.19463E-04 1.64455E-04
 -1       257-7.90618E-07-7.25118E-04 8.32067E-09
 -1       258-6.60297E-09-6.42956E-04-1.36355E-08
 -1       259 7.76307E-07-7.25113E-04 3.30904E-09
 -1       260-4.66643E-09-6.21058E-04-1.64512E-04
 -1       261-1.72980E-09-2.76115E-04 2.69467E-09
 -3
    1PSTEP                         4           4           1          
  100CL  104 2.00000E-02          81                     1    4           1
 -4  DISP        4    1
 -5  D1          1    2    1    0
 -5  D2          1    2    2    0
 -5  D3          1    2    3    0
 -5  ALL         1    2    0    0    1ALL
 -1         5 0.00000E+00 0.00000E+00 0.00000E+00
 -1         6 0.00000E+00 0.00000E+00 0.00000E+00
 -1         7 0.00000E+00 0.00000E+00 0.00000E+00
 -1         8 0.00000E+00 0.00000E+00 0.00000E+00
 -1        21 0.00000E+00 0.00000E+00 0.00000E+00
 -1        22 0.00000E+00 0.00000E+00 0.00000E+00
 -1        23 0.00000E+00 0.00000E+00 0.00000E+00
 -1        24 0.00000E+00 0.00000E+00 0.00000E+00
 -1        25 0.00000E+00 0.00000E+00 0.00000E+00
 -1        26 0.00000E+00 0.00000E+00 0.00000E+00
 -1        27 0.00000E+00 0.00000E+00 0.00000E+00
 -1        28 0.00000E+00 0.00000E+00 0.00000E+00
 -1        29 0.00000E+00 0.00000E+00 0.00000E+00
 -1        30 0.00000E+00 0.00000E+00 0.00000E+00
 -1        31 0.00000E+00 0.00000E+00 0.00000E+00
 -1        32 0.00000E+00 0.00000E+00 0.00000E+00
 -1        44-9.86656E-05 9.85782E-04-1.44043E-04
 -1        45-2.39092E-05 7.67011E-04-2.32013E-04
 -1        46 2.63883E-05 5.62550E-04-2.65723E-04
 -1        47-3.25863E-05 2.28089E-04-1.74815E-04
 -1        48 3.25908E-05 2.28089E-04-1.74814E-04
 -1        49-2.63740E-05 5.62572E-04-2.65725E-04
 -1        50 2.39367E-05 7.66979E-04-2.32025E-04
 -1        51 9.86569E-05 9.85889E-04-1.44096E-04
 -1        74 9.19065E-05 9.91560E-04 1.43999E-04
 -1        75 2.04466E-05 7.70428E-04 2.31917E-04
 -1        76-2.52566E-05 5.61434E-04 2.65766E-04
 -1        77 3.35778E-05 2.27189E-04 1.74854E-04
 -1        89-9.20252E-05 9.91581E-04 1.44099E-04
 -1        90-2.03719E-05 7.70411E-04 2.31922E-04
 -1        91 2.52317E-05 5.61455E-04 2.65745E-04
 -1        92-3.35671E-05 2.27183E-04 1.74829E-04
 -1        98 0.00000E+00 0.00000E+00 0.00000E+00
 -1        99 0.00000E+00 0.00000E+00 0.00000E+00
 -1       100 0.00000E+00 0.00000E+00 0.00000E+00
 -1       101 0.00000E+00 0.00000E+00 0.00000E+00
 -1       102 0.00000E+00 0.00000E+00 0.00000E+00
 -1       124 8.22911E-06 9.11541E-04-1.35836E-04
 -1       125 1.43296E-09 1.08748E-03-1.42431E-04
 -1       126-8.22836E-06 9.11487E-04-1.35802E-04
 -1       127 1.01527E-08 8.00923E-04-2.57219E-04
 -1       128-3.08983E-06 5.89761E-04-2.85194E-04
 -1       129 9.10920E-09 5.47610E-04-2.90912E-04
 -1       130 3.10521E-06 5.89750E-04-2.85196E-04
 -1       131 2.09406E-09 2.30931E-04-1.69833E-04
 -1       153 7.95496E-05 1.17527E-03-6.40339E-05
 -1       154-1.38479E-06 1.04593E-03-2.68118E-08
 -1       155-7.73176E-05 1.18304E-03 6.40551E-05
 -1       156-6.90654E-08 8.66168E-04 3.25207E-07
 -1       157-1.60215E-05 4.88752E-04-1.14502E-04
 -1       158 4.38982E-07 4.97894E-04 1.32979E-07
 -1       159 1.55392E-05 4.87096E-04 1.14457E-04
 -1       160 2.35063E-09 1.89218E-04 1.51228E-08
 -1       182-2.10945E-07 9.09633E-04 1.35891E-04
 -1       183 6.29510E-08 1.08945E-03 1.42370E-04
 -1       184 2.21701E-07 9.09633E-04 1.35835E-04
 -1       185-9.65474E-09 8.00530E-04 2.56598E-04
 -1       186-1.36796E-06 5.90147E-04 2.85222E-04
 -1       187 2.70614E-08 5.47176E-04 2.90655E-04
 -1       188 1.38173E-06 5.90157E-04 2.85234E-04
 -1       189-6.21456E-10 2.31060E-04 1.69829E-04
 -1       211 7.72920E-05 1.18302E-03 6.40512E-05
 -1       212 1.44110E-06 1.04587E-03-6.10967E-08
 -1       213-7.95325E-05 1.17529E-03-6.40065E-05
 -1       214 8.49015E-08 8.66191E-04 3.10544E-07
 -1       215-1.55411E-05 4.87096E-04 1.14451E-04
 -1       216-4.15292E-07 4.97875E-04 1.25894E-07
 -1       217 1.60404E-05 4.88754E-04-1.14521E-04
 -1       218 2.69070E-09 1.89221E-04 1.30770E-08
 -1       250 9.96475E-09 1.17924E-03-6.35508E-05
 -1       251-2.71007E-06 7.43385E-04-4.91502E-08
 -1       252 1.56680E-08 9.49804E-04-7.80019E-08
 -1       253 2.75282E-06 7.43417E-04-4.64527E-08
 -1       254 4.19086E-08 1.17344E-03 6.34561E-05
 -1       255 1.36701E-08 8.46531E-04-5.89426E-09
 -1       256 6.82715E-09 4.80998E-04-1.27572E-04
 -1       257 5.53998E-07 5.62668E-04-1.61083E-08
 -1       258 5.31245E-09 4.99384E-04 1.66474E-08
 -1       259-5.37012E-07 5.62677E-04-9.29034E-09
 -1       260 1.58874E-08 4.82276E-04 1.27638E-04
 -1       261 3.27022E-09 2.14292E-04-1.11533E-08
 -3
    1PSTEP                         5           5           1          
  100CL  105 2.50000E-02          81                     1    5           1
 -4  DISP        4    1
 -5  D1          1    2    1    0
 -5  D2          1    2    2    0
 -5  D3          1    2    3    0
 -5  ALL         1    2    0    0    1ALL
 -1         5 0.00000E+00 0.00000E+00 0.00000E+00
 -1         6 0.00000E+00 0.00000E+00 0.00000E+00
 -1         7 0.00000E+00 0.00000E+00 0.00000E+00
 -1         8 0.00000E+00 0.00000E+00 0.00000E+00
 -1        21 0.00000E+00 0.00000E+00 0.00000E+00
 -1        22 0.00000E+00 0.00000E+00 0.00000E+00
 -1        23 0.00000E+00 0.00000E+00 0.00000E+00
 -1        24 0.00000E+00 0.00000E+00 0.00000E+00
 -1        25 0.00000E+00 0.00000E+00 0.00000E+00
 -1        26 0.00000E+00 0.00000E+00 0.00000E+00
 -1        27 0.00000E+00 0.00000E+00 0.00000E+00
 -1        28 0.00000E+00 0.00000E+00 0.00000E+00
 -1        29 0.00000E+00 0.00000E+00 0.00000E+00
 -1        30 0.00000E+00 0.00000E+00 0.00000E+00
 -1        31 0.00000E+00 0.00000E+00 0.00000E+00
 -1        32 0.00000E+00 0.00000E+00 0.00000E+00
 -1        44 7.58636E-05-7.43701E-04 1.08813E-04
 -1        45 1.84716E-05-5.78934E-04 1.75350E-04
 -1        46-2.01628E-05-4.24841E-04 2.00509E-04
 -1        47 2.44368E-05-1.72400E-04 1.32055E-04
 -1        48-2.44442E-05-1.72402E-04 1.32062E-04
 -1        49 2.01527E-05-4.24846E-04 2.00521E-04
 -1        50-1.85144E-05-5.78925E-04 1.75361E-04
 -1        51-7.58415E-05-7.43746E-04 1.08812E-04
 -1        74-7.08851E-05-7.48593E-04-1.08822E-04
 -1        75-1.57257E-05-5.81695E-04-1.75416E-04
 -1        76 1.92684E-05-4.23978E-04-2.00541E-04
 -1        77-2.52120E-05-1.71651E-04-1.32062E-04
 -1        89 7.09311E-05-7.48577E-04-1.08854E-04
 -1        90 1.56727E-05-5.81689E-04-1.75405E-04
 -1        91-1.92682E-05-4.23985E-04-2.00527E-04
 -1        92 2.52030E-05-1.71647E-04-1.32049E-04
 -1        98 0.00000E+00 0.00000E+00 0.00000E+00
 -1        99 0.00000E+00 0.00000E+00 0.00000E+00
 -1       100 0.00000E+00 0.00000E+00 0.00000E+00
 -1       101 0.00000E+00 0.00000E+00 0.00000E+00
 -1       102 0.00000E+00 0.00000E+00 0.00000E+00
 -1       124-7.11183E-06-6.88657E-04 1.02637E-04
 -1       125-2.03877E-08-8.20900E-04 1.07558E-04
 -1       126 7.09698E-06-6.88634E-04 1.02607E-04
 -1       127-9.26332E-09-6.04938E-04 1.94164E-04
 -1       128 2.51587E-06-4.45151E-04 2.15366E-04
 -1       129-1.39750E-08-4.13472E-04 2.19819E-04
 -1       130-2.53371E-06-4.45148E-04 2.15368E-04
 -1       131-2.34013E-09-1.74291E-04 1.28209E-04
 -1       153-6.10743E-05-8.88106E-04 4.84098E-05
 -1       154 9.64529E-07-7.92452E-04 4.54885E-09
 -1       155 5.93087E-05-8.94665E-04-4.84053E-05
 -1       156-4.17228E-08-6.53836E-04-2.99792E-07
 -1       157 1.23793E-05-3.69372E-04 8.64122E-05
 -1       158-2.86070E-07-3.76370E-04-1.03729E-07
 -1       159-1.20220E-05-3.68011E-04-8.63906E-05
 -1       160 1.61133E-08-1.42754E-04-3.00945E-09
 -1       182-6.03809E-07-6.87076E-04-1.02687E-04
 -1       183-3.83157E-08-8.22704E-04-1.07701E-04
 -1       184 5.82888E-07-6.87066E-04-1.02653E-04
 -1       185-3.78531E-09-6.04748E-04-1.93625E-04
 -1       186 1.16187E-06-4.45499E-04-2.15414E-04
 -1       187-1.84822E-08-4.13010E-04-2.19606E-04
 -1       188-1.17919E-06-4.45502E-04-2.15418E-04
 -1       189-1.44301E-09-1.74373E-04-1.28211E-04
 -1       211-5.93060E-05-8.94644E-04-4.84138E-05
 -1       212-9.97208E-07-7.92430E-04 2.66370E-08
 -1       213 6.10701E-05-8.88120E-04 4.83950E-05
 -1       214 7.59415E-09-6.53842E-04-2.86556E-07
 -1       215 1.20146E-05-3.68011E-04-8.63769E-05
 -1       216 2.69070E-07-3.76363E-04-9.26299E-08
 -1       217-1.23926E-05-3.69371E-04 8.64291E-05
 -1       218-2.35178E-08-1.42755E-04 4.17681E-09
 -1       250-2.67244E-08-8.89848E-04 4.79254E-05
 -1       251 2.33568E-06-5.61420E-04 4.83968E-08
 -1       252-3.16296E-08-7.15954E-04-6.94922E-08
 -1       253-2.38322E-06-5.61433E-04 2.83983E-08
 -1       254-3.64397E-08-8.85139E-04-4.80913E-05
 -1       255-1.26196E-08-6.39692E-04-5.39077E-10
 -1       256-1.28015E-08-3.62909E-04 9.64105E-05
 -1       257-5.01375E-07-4.24982E-04 7.05946E-09
 -1       258-1.17984E-08-3.76600E-04 3.61216E-09
 -1       259 4.81037E-07-4.24985E-04 3.66719E-09
 -1       260-1.50059E-08-3.63916E-04-9.64368E-05
 -1       261-2.70694E-09-1.61794E-04 2.18270E-09
 -3
    1PSTEP                         6           6           1          
  100CL  106 3.00000E-02          81                     1    6           1
 -4  DISP        4    1
 -5  D1          1    2    1    0
 -5  D2          1    2    2    0
 -5  D3          1    2    3    0
 -5  ALL         1    2    0    0    1ALL
 -1         5 0.00000E+00 0.00000E+00 0.00000E+00
 -1         6 0.00000E+00 0.00000E+00 0.00000E+00
 -1         7 0.00000E+00 0.00000E+00 0.00000E+00
 -1         8 0.00000E+00 0.00000E+00 0.00000E+00
 -1        21 0.00000E+00 0.00000E+00 0.00000E+00
 -1        22 0.00000E+00 0.00000E+00 0.00000E+00
 -1        23 0.00000E+00 0.00000E+00 0.00000E+00
 -1        24 0.00000E+00 0.00000E+00 0.00000E+00
 -1        25 0.00000E+00 0.00000E+00 0.00000E+00
 -1        26 0.00000E+00 0.00000E+00 0.00000E+00
 -1        27 0.00000E+00 0.00000E+00 0.00000E+00
 -1        28 0.00000E+00 0.00000E+00 0.00000E+00
 -1        29 0.00000E+00 0.00000E+00 0.00000E+00
 -1        30 0.00000E+00 0.00000E+00 0.00000E+00
 -1        31 0.00000E+00 0.00000E+00 0.00000E+00
 -1        32 0.00000E+00 0.00000E+00 0.00000E+00
 -1        44-5.37232E-05 5.39850E-04-7.88383E-05
 -1        45-1.29623E-05 4.19971E-04-1.27025E-04
 -1        46 1.43903E-05 3.07860E-04-1.45431E-04
 -1        47-1.78652E-05 1.24831E-04-9.56912E-05