
 displacements (vx,vy,vz) for set NALL and time  0.5000000E-02

         5  0.000000E+00  0.000000E+00  0.000000E+00
         6  0.000000E+00  0.000000E+00  0.000000E+00
         7  0.000000E+00  0.000000E+00  0.000000E+00
         8  0.000000E+00  0.000000E+00  0.000000E+00
        21  0.000000E+00  0.000000E+00  0.000000E+00
        22  0.000000E+00  0.000000E+00  0.000000E+00
        23  0.000000E+00  0.000000E+00  0.000000E+00
        24  0.000000E+00  0.000000E+00  0.000000E+00
        25  0.000000E+00  0.000000E+00  0.000000E+00
        26  0.000000E+00  0.000000E+00  0.000000E+00
        27  0.000000E+00  0.000000E+00  0.000000E+00
        28  0.000000E+00  0.000000E+00  0.000000E+00
        29  0.000000E+00  0.000000E+00  0.000000E+00
        30  0.000000E+00  0.000000E+00  0.000000E+00
        31  0.000000E+00  0.000000E+00  0.000000E+00
        32  0.000000E+00  0.000000E+00  0.000000E+00
        44 -6.040292E-05 -3.466766E-03  4.487748E-04
        45  5.673858E-05 -2.562677E-03  7.861161E-04
        46 -4.752815E-05 -1.795786E-03  9.494379E-04
        47  1.310212E-04 -6.750337E-04  5.432094E-04
        48 -1.310134E-04 -6.750294E-04  5.431963E-04
        49  4.755564E-05 -1.795784E-03  9.494127E-04
        50 -5.668039E-05 -2.562671E-03  7.860794E-04
        51  6.050621E-05 -3.466767E-03  4.487295E-04
        74  3.204434E-04 -4.414315E-03 -4.946387E-04
        75  1.918211E-04 -2.973193E-03 -7.852009E-04
        76 -1.107909E-04 -1.597520E-03 -9.502297E-04
        77 -2.080613E-04 -5.265701E-04 -5.582388E-04
        89 -3.203456E-04 -4.414321E-03 -4.946831E-04
        90 -1.917627E-04 -2.973194E-03 -7.852359E-04
        91  1.108189E-04 -1.597524E-03 -9.502538E-04
        92  2.080691E-04 -5.265740E-04 -5.582506E-04
        98  0.000000E+00  0.000000E+00  0.000000E+00
        99  0.000000E+00  0.000000E+00  0.000000E+00
       100  0.000000E+00  0.000000E+00  0.000000E+00
       101  0.000000E+00  0.000000E+00  0.000000E+00
       102  0.000000E+00  0.000000E+00  0.000000E+00
       124  1.483096E-04 -2.966854E-03  4.297858E-04
       125  4.981391E-08 -3.589159E-03  4.489438E-04
       126 -1.482091E-04 -2.966853E-03  4.298076E-04
       127  2.847968E-08 -2.562718E-03  9.035632E-04
       128 -8.853274E-06 -1.953040E-03  9.483499E-04
       129  1.289144E-08 -1.814916E-03  9.417172E-04
       130  8.879436E-06 -1.953041E-03  9.483627E-04
       131  2.767440E-09 -7.365192E-04  5.564778E-04
       153  7.032783E-05 -3.636424E-03  1.912463E-04
       154 -1.198737E-04 -2.503877E-03 -2.067339E-05
       155 -6.591756E-05 -3.890497E-03 -2.380766E-04
       156 -1.201437E-04 -2.789453E-03 -6.461982E-05
       157 -2.057291E-05 -1.509354E-03  3.925116E-04
       158  8.837510E-05 -1.567349E-03 -2.939345E-05
       159  4.691148E-05 -1.475705E-03 -4.111426E-04
       160  3.979570E-05 -6.566009E-04  4.900577E-06
       182  1.148931E-04 -2.563107E-03 -4.713657E-04
       183  4.654866E-08 -4.355053E-03 -4.765108E-04
       184 -1.147981E-04 -2.563109E-03 -4.713864E-04
       185  2.895658E-08 -2.833189E-03 -8.737932E-04
       186 -4.410935E-05 -2.162597E-03 -9.828498E-04
       187  1.296838E-08 -1.832169E-03 -9.638624E-04
       188  4.413582E-05 -2.162599E-03 -9.828619E-04
       189  2.901986E-09 -7.200794E-04 -5.646090E-04
       211  6.601091E-05 -3.890498E-03 -2.381148E-04
       212  1.199650E-04 -2.503872E-03 -2.071233E-05
       213 -7.022923E-05 -3.636422E-03  1.911992E-04
       214  1.202085E-04 -2.789456E-03 -6.465368E-05
       215 -4.688393E-05 -1.475706E-03 -4.111682E-04
       216 -8.834981E-05 -1.567346E-03 -2.941917E-05
       217  2.059976E-05 -1.509352E-03  3.924872E-04
       218 -3.978571E-05 -6.566010E-04  4.887084E-06
       250  5.265761E-08 -4.082638E-03  1.745856E-04
       251  3.075067E-05 -2.572659E-03 -1.033418E-05
       252  5.431006E-08 -3.123537E-03 -1.620400E-05
       253 -3.065181E-05 -2.572662E-03 -1.030715E-05
       254  5.086867E-08 -4.412943E-03 -2.542539E-04
       255  2.779487E-08 -2.599963E-03 -3.207833E-05
       256  1.445842E-08 -1.607349E-03  3.957004E-04
       257 -4.119821E-05 -1.749471E-03 -1.203408E-05
       258  1.568561E-08 -1.790265E-03 -1.450961E-05
       259  4.122629E-05 -1.749472E-03 -1.202314E-05
       260  1.453246E-08 -1.622658E-03 -4.183530E-04
       261  3.309550E-09 -7.170622E-04 -1.948614E-06

 forces (fx,fy,fz) for set NALL and time  0.5000000E-02

         5  2.288630E+00 -4.178227E+00 -1.103699E+00
         6 -2.288701E+00 -4.178192E+00 -1.103681E+00
         7  3.453006E+00  1.080635E+00  1.266992E+00
         8 -3.453093E+00  1.080693E+00  1.267004E+00
        21 -2.769207E+00  5.576566E+00 -1.789875E+01
        22 -3.982168E-05 -9.890719E+00 -6.605762E-01
        23  2.769347E+00  5.576570E+00 -1.789898E+01
        24 -4.634875E+00  1.711163E+01 -1.021935E+01
        25  8.514302E-01 -1.151566E+01 -4.607873E-01
        26  2.153169E+00  1.342758E+01  1.050782E+01
        27 -1.807186E+00 -4.430451E-01  1.760068E+01
        28 -4.308724E-05 -1.606882E+00  1.779558E+00
        29  1.807328E+00 -4.430042E-01  1.760091E+01
        30 -2.153200E+00  1.342757E+01  1.050810E+01
        31 -8.515415E-01 -1.151568E+01 -4.608569E-01
        32  4.634847E+00  1.711165E+01 -1.021903E+01
        44  1.874521E+00  5.187841E+01  1.432366E+00
        45 -7.131321E-06 -6.080380E-01  1.525634E-01
        46  5.450898E-06  1.541473E+00 -4.634098E-01
        47 -1.911844E-06 -1.167011E+00  5.403038E-01
        48  2.089460E-06 -1.167010E+00  5.403044E-01
        49 -4.880350E-06  1.541474E+00 -4.634100E-01
        50  5.313682E-06 -6.080403E-01  1.525630E-01
        51 -1.874450E+00  5.187842E+01  1.432489E+00
        74 -7.323959E+00  1.759896E+01 -9.834145E-01
        75  6.456213E-07 -6.081234E-01 -1.525356E-01
        76 -1.637876E-06  1.541534E+00  4.634018E-01
        77  4.014525E-06 -1.167024E+00 -5.403001E-01
        89  7.324068E+00  1.759889E+01 -9.834154E-01
        90 -3.467973E-06 -6.081198E-01 -1.525355E-01
        91  2.119440E-06  1.541534E+00  4.634019E-01
        92 -3.430538E-06 -1.167026E+00 -5.403000E-01
        98 -4.982412E-05  3.798846E+01 -1.718090E+01
        99 -2.352388E-01 -7.610414E+00  6.519855E-01
       100 -1.753067E-04 -2.291186E+01 -3.795073E-01
       101  2.355267E-01 -7.610365E+00  6.515452E-01
       102 -1.993533E-05  3.527798E+01  1.650002E+01
       124  1.693696E+01  1.973438E+01 -6.084787E-01
       125  3.860271E-05  1.115226E+02  2.962035E+00
       126 -1.693709E+01  1.973449E+01 -6.082410E-01
       127  4.398384E-07 -1.216077E+00  3.051177E-01
       128  4.557338E-06 -2.615777E+00  9.358650E-01
       129 -1.977958E-07  3.082946E+00 -9.268166E-01
       130 -5.016807E-06 -2.615776E+00  9.358641E-01
       131  5.295602E-07 -2.334021E+00  1.080606E+00
       153  1.156126E+01 -1.326767E+02 -2.298758E+00
       154 -2.835611E+00  9.855938E+01  4.322813E-01
       155  4.032464E+00 -1.082927E+02  1.401536E+00
       156 -1.171618E-05 -1.216153E+00 -2.478955E-05
       157 -7.607186E-06 -2.615785E+00  7.018891E-01
       158  5.803689E-06  3.083006E+00  1.159795E-05
       159 -1.389647E-07 -2.615848E+00 -7.018921E-01
       160 -1.208059E-06 -2.334038E+00 -3.363792E-06
       182  7.905893E+00  6.532364E+01  4.108437E-01
       183  4.567045E-05  5.164254E+01 -1.380929E+00
       184 -7.906049E+00  6.532373E+01  4.107119E-01
       185  1.291347E-06 -6.742573E+00 -3.050653E-01
       186  2.521119E-06 -8.142179E+00 -9.358385E-01
       187 -4.799338E-07 -2.443243E+00  9.268048E-01
       188 -2.878681E-06 -8.142177E+00 -9.358381E-01
       189  4.008572E-07 -7.860373E+00 -1.080595E+00
       211 -4.032558E+00 -1.082927E+02  1.401446E+00
       212  2.835740E+00  9.855940E+01  4.325371E-01
       213 -1.156128E+01 -1.326767E+02 -2.299131E+00
       214  9.290956E-06 -1.216154E+00 -2.298063E-05
       215 -1.520317E-06 -2.615846E+00 -7.018923E-01
       216 -4.644104E-06  3.083005E+00  1.076122E-05
       217  6.236492E-06 -2.615787E+00  7.018893E-01
       218  5.972366E-07 -2.334038E+00 -4.638785E-06
       250  1.461002E-04 -2.938516E+02 -5.863779E+00
       251  5.287922E+00  8.827393E+01  5.597269E-01
       252  2.685346E-04  2.057102E+02  1.289361E+00
       253 -5.288311E+00  8.827380E+01  5.604706E-01
       254  6.957318E-05 -2.683553E+02  1.551836E+00
       255  3.291441E-06 -2.432314E+00 -6.072733E-05
       256  8.448405E-07 -5.231571E+00  1.403768E+00
       257  7.240949E-06 -5.231633E+00 -2.667987E-05
       258 -6.528237E-07  6.166016E+00  2.392870E-05
       259 -6.920870E-06 -5.231632E+00 -2.695524E-05
       260  1.693368E-06 -5.231707E+00 -1.403780E+00
       261 -4.982054E-07 -4.668080E+00 -9.360839E-06

 displacements (vx,vy,vz) for set NALL and time  0.1000000E-01

         5  0.000000E+00  0.000000E+00  0.000000E+00
         6  0.000000E+00  0.000000E+00  0.000000E+00
         7  0.000000E+00  0.000000E+00  0.000000E+00
         8  0.000000E+00  0.000000E+00  0.000000E+00
        21  0.000000E+00  0.000000E+00  0.000000E+00
        22  0.000000E+00  0.000000E+00  0.000000E+00
        23  0.000000E+00  0.000000E+00  0.000000E+00
        24  0.000000E+00  0.000000E+00  0.000000E+00
        25  0.000000E+00  0.000000E+00  0.000000E+00
        26  0.000000E+00  0.000000E+00  0.000000E+00
        27  0.000000E+00  0.000000E+00  0.000000E+00
        28  0.000000E+00  0.000000E+00  0.000000E+00
        29  0.000000E+00  0.000000E+00  0.000000E+00
        30  0.000000E+00  0.000000E+00  0.000000E+00
        31  0.000000E+00  0.000000E+00  0.000000E+00
        32  0.000000E+00  0.000000E+00  0.000000E+00
        44 -1.587133E-04  1.600353E-03 -2.340191E-04
        45 -3.961574E-05  1.244246E-03 -3.773410E-04
        46  4.357015E-05  9.162294E-04 -4.322113E-04
        47 -5.271023E-05  3.712108E-04 -2.840103E-04
        48  5.271083E-05  3.712182E-04 -2.840171E-04
        49 -4.356244E-05  9.162428E-04 -4.322222E-04
        50  3.963574E-05  1.244266E-03 -3.773649E-04
        51  1.587734E-04  1.600351E-03 -2.340255E-04
        74  1.442600E-04  1.620086E-03  2.341324E-04
        75  3.047713E-05  1.254674E-03  3.772840E-04
        76 -3.944501E-05  9.116550E-04  4.321852E-04
        77  5.528503E-05  3.681069E-04  2.841017E-04
        89 -1.441497E-04  1.620053E-03  2.340600E-04
        90 -3.043447E-05  1.254696E-03  3.772422E-04
        91  3.949000E-05  9.116623E-04  4.321823E-04
        92 -5.527817E-05  3.681071E-04  2.841006E-04
        98  0.000000E+00  0.000000E+00  0.000000E+00
        99  0.000000E+00  0.000000E+00  0.000000E+00
       100  0.000000E+00  0.000000E+00  0.000000E+00
       101  0.000000E+00  0.000000E+00  0.000000E+00
       102  0.000000E+00  0.000000E+00  0.000000E+00
       124  1.012672E-05  1.482429E-03 -2.204216E-04
       125  3.161362E-08  1.765094E-03 -2.313241E-04
       126 -1.006624E-05  1.482427E-03 -2.204428E-04
       127  1.445687E-08  1.301856E-03 -4.181103E-04
       128 -4.778745E-06  9.584534E-04 -4.633944E-04
       129  2.381985E-09  8.896291E-04 -4.725301E-04
       130  4.784711E-06  9.584479E-04 -4.633825E-04
       131 -6.084344E-10  3.753282E-04 -2.760057E-04
       153  1.273059E-04  1.911099E-03 -1.037926E-04
       154 -1.374275E-06  1.692921E-03  5.636568E-08
       155 -1.228248E-04  1.925170E-03  1.040957E-04
       156  1.187590E-06  1.405774E-03  1.188153E-06
       157 -2.542700E-05  7.945546E-04 -1.859993E-04
       158 -2.128196E-07  8.104194E-04  5.015959E-07
       159  2.438389E-05  7.914680E-04  1.859961E-04
       160 -3.567527E-07  3.083901E-04  3.200572E-09
       182 -1.659822E-06  1.474807E-03  2.205881E-04
       183  2.655487E-08  1.775558E-03  2.316731E-04
       184  1.736916E-06  1.474789E-03  2.205563E-04
       185  2.864895E-08  1.303364E-03  4.162802E-04
       186 -1.793234E-06  9.606903E-04  4.636954E-04
       187  1.049970E-08  8.883987E-04  4.720357E-04
       188  1.826688E-06  9.606944E-04  4.636941E-04
       189  5.288701E-09  3.751972E-04  2.759874E-04
       211  1.228958E-04  1.925154E-03  1.041046E-04
       212  1.401608E-06  1.692918E-03  1.046077E-08
       213 -1.272637E-04  1.911097E-03 -1.038286E-04
       214 -1.137582E-06  1.405783E-03  1.165981E-06
       215 -2.435683E-05  7.914771E-04  1.859682E-04
       216  2.231951E-07  8.104314E-04  4.831195E-07
       217  2.543741E-05  7.945684E-04 -1.860111E-04
       218  3.648251E-07  3.083951E-04 -5.829363E-09
       250  3.326638E-08  1.910829E-03 -1.030009E-04
       251 -4.122105E-06  1.209874E-03 -9.270809E-08
       252  3.496345E-08  1.540743E-03  1.140012E-07
       253  4.174052E-06  1.209878E-03 -4.091571E-08
       254  3.200755E-08  1.905487E-03  1.036831E-04
       255  1.418340E-08  1.374901E-03  2.003722E-07
       256  8.102912E-09  7.826218E-04 -2.072618E-04
       257  1.193406E-06  9.138284E-04  3.545791E-08
       258  1.345193E-08  8.122857E-04  6.655984E-08
       259 -1.175578E-06  9.138219E-04  3.787204E-08
       260  1.174128E-08  7.843035E-04  2.074268E-04
       261  2.147996E-09  3.485219E-04  2.236298E-08

 forces (fx,fy,fz) for set NALL and time  0.1000000E-01

         5 -1.677039E+00  4.066992E-01  9.229516E-01
         6  1.676976E+00  4.068004E-01  9.229374E-01
         7 -1.673458E+00  3.566118E-01 -9.240545E-01
         8  1.673320E+00  3.567329E-01 -9.238468E-01
        21  1.043660E+00 -1.677310E+00  8.962245E+00
        22  6.483829E-06  7.925872E-01  1.402443E+00
        23 -1.043591E+00 -1.677313E+00  8.962169E+00
        24  1.157159E+00 -5.913317E+00  4.712269E+00
        25  4.712468E-02  2.464266E+00  1.235271E-02
        26 -1.169365E+00 -5.891257E+00 -4.723576E+00
        27  1.039126E+00 -1.599389E+00 -8.951038E+00
        28  6.219011E-05  6.237590E-01 -1.427903E+00
        29 -1.039038E+00 -1.599348E+00 -8.950843E+00
        30  1.169195E+00 -5.891374E+00 -4.723750E+00
        31 -4.702551E-02  2.464210E+00  1.234565E-02
        32 -1.157060E+00 -5.913158E+00  4.712470E+00
        44 -6.232942E+00 -1.528293E+01 -7.554681E-01
        45  6.107727E-06  5.208353E-01 -1.306833E-01
        46 -4.673524E-06 -1.320401E+00  3.969495E-01
        47  1.646865E-06  9.996432E-01 -4.628157E-01
        48 -1.799008E-06  9.996421E-01 -4.628162E-01
        49  4.184796E-06 -1.320402E+00  3.969497E-01
        50 -4.550758E-06  5.208373E-01 -1.306830E-01
        51  6.233012E+00 -1.528254E+01 -7.552733E-01
        74  6.161360E+00 -1.491161E+01  7.521641E-01
        75 -5.475567E-07  5.209086E-01  1.306595E-01
        76  1.404571E-06 -1.320454E+00 -3.969427E-01
        77 -3.448517E-06  9.996540E-01  4.628125E-01
        89 -6.160870E+00 -1.491191E+01  7.513941E-01
        90  2.965146E-06  5.209054E-01  1.306595E-01
        91 -1.817077E-06 -1.320453E+00 -3.969428E-01
        92  2.948284E-06  9.996559E-01  4.628125E-01
        98 -6.665928E-05 -1.293967E+01  8.230245E+00
        99  7.386182E-02  3.904725E+00 -1.060991E-02
       100 -1.835303E-04  5.302014E+00  3.308594E-03
       101 -7.371459E-02  3.904876E+00 -1.110269E-02
       102 -4.829125E-06 -1.277512E+01 -8.213429E+00
       124 -6.506598E+00 -1.671187E+01  4.680402E-01
       125  2.007056E-04 -3.161224E+01 -1.401796E+00
       126  6.506576E+00 -1.671243E+01  4.668967E-01
       127 -3.767514E-07  1.041671E+00 -2.613589E-01
       128 -3.909442E-06  2.240633E+00 -8.016472E-01
       129  1.694227E-07 -2.640803E+00  7.938964E-01
       130  4.303025E-06  2.240632E+00 -8.016464E-01
       131 -4.536119E-07  1.999285E+00 -9.256298E-01
       153  4.737715E+00  5.188038E+01  1.176785E+00
       154 -4.859505E-01 -3.316329E+01 -3.088595E-03
       155 -4.541659E+00  5.175500E+01 -1.166821E+00
       156  1.002968E-05  1.041737E+00  2.122529E-05
       157  6.521870E-06  2.240640E+00 -6.012271E-01
       158 -4.970907E-06 -2.640853E+00 -9.928997E-06
       159  1.167769E-07  2.240694E+00  6.012297E-01
       160  1.038766E-06  1.999300E+00  2.881454E-06
       182 -6.484636E+00 -1.737890E+01 -4.703659E-01
       183  2.130790E-05 -3.013687E+01  1.394524E+00
       184  6.484388E+00 -1.737886E+01 -4.706619E-01
       185 -1.106141E-06  1.069527E+00  2.613140E-01
       186 -2.162708E-06  2.268408E+00  8.016245E-01
       187  4.110985E-07 -2.613210E+00 -7.938863E-01
       188  2.468996E-06  2.268406E+00  8.016241E-01
       189 -3.433672E-07  2.027017E+00  9.256210E-01
       211  4.542198E+00  5.175535E+01 -1.164158E+00
       212  4.854213E-01 -3.316360E+01 -3.898980E-03
       213 -4.738161E+00  5.187991E+01  1.176018E+00
       214 -7.952262E-06  1.041737E+00  1.967579E-05
       215  1.304545E-06  2.240692E+00  6.012298E-01
       216  3.977612E-06 -2.640853E+00 -9.212258E-06
       217 -5.347747E-06  2.240641E+00 -6.012273E-01
       218 -5.155438E-07  1.999300E+00  3.973591E-06
       250  9.387440E-05  1.053425E+02  2.325704E+00
       251 -7.062568E-01 -4.722310E+01 -1.676363E-02
       252 -1.685346E-04 -6.962844E+01 -5.955917E-03
       253  7.064585E-01 -4.722274E+01 -1.406896E-02
       254 -1.544082E-04  1.038115E+02 -2.278790E+00
       255 -2.819383E-06  2.083480E+00  5.200266E-05
       256 -7.236696E-07  4.481281E+00 -1.202446E+00
       257 -6.205335E-06  4.481333E+00  2.284546E-05
       258  5.591870E-07 -5.281711E+00 -2.048559E-05
       259  5.931175E-06  4.481333E+00  2.308135E-05
       260 -1.450506E-06  4.481397E+00  1.202456E+00
       261  4.267569E-07  3.998604E+00  8.017815E-06

 displacements (vx,vy,vz) for set NALL and time  0.1500000E-01

         5  0.000000E+00  0.000000E+00  0.000000E+00
         6  0.000000E+00  0.000000E+00  0.000000E+00
         7  0.000000E+00  0.000000E+00  0.000000E+00
         8  0.000000E+00  0.000000E+00  0.000000E+00
        21  0.000000E+00  0.000000E+00  0.000000E+00
        22  0.000000E+00  0.000000E+00  0.000000E+00
        23  0.000000E+00  0.000000E+00  0.000000E+00
        24  0.000000E+00  0.000000E+00  0.000000E+00
        25  0.000000E+00  0.000000E+00  0.000000E+00
        26  0.000000E+00  0.000000E+00  0.000000E+00
        27  0.000000E+00  0.000000E+00  0.000000E+00
        28  0.000000E+00  0.000000E+00  0.000000E+00
        29  0.000000E+00  0.000000E+00  0.000000E+00
        30  0.000000E+00  0.000000E+00  0.000000E+00
        31  0.000000E+00  0.000000E+00  0.000000E+00
        32  0.000000E+00  0.000000E+00  0.000000E+00
        44  1.207253E-04 -1.272963E-03  1.853034E-04
        45  2.828393E-05 -9.891824E-04  2.986935E-04
        46 -3.320440E-05 -7.240854E-04  3.422578E-04
        47  4.264740E-05 -2.931706E-04  2.249923E-04
        48 -4.264089E-05 -2.931590E-04  2.249611E-04
        49  3.321498E-05 -7.240813E-04  3.422130E-04
        50 -2.819578E-05 -9.891567E-04  2.986582E-04
        51 -1.205286E-04 -1.273062E-03  1.852661E-04
        74 -1.187453E-04 -1.276352E-03 -1.852496E-04
        75 -2.688767E-05 -9.908416E-04 -2.985884E-04
        76  3.225443E-05 -7.228972E-04 -3.421696E-04
        77 -4.300876E-05 -2.926396E-04 -2.249780E-04
        89  1.188674E-04 -1.276390E-03 -1.853100E-04
        90  2.699868E-05 -9.907964E-04 -2.986136E-04
        91 -3.222116E-05 -7.229172E-04 -3.422047E-04
        92  4.301766E-05 -2.926427E-04 -2.249956E-04
        98  0.000000E+00  0.000000E+00  0.000000E+00
        99  0.000000E+00  0.000000E+00  0.000000E+00
       100  0.000000E+00  0.000000E+00  0.000000E+00
       101  0.000000E+00  0.000000E+00  0.000000E+00
       102  0.000000E+00  0.000000E+00  0.000000E+00
       124 -3.460931E-06 -1.172147E-03  1.745682E-04
       125  1.151385E-07 -1.399635E-03  1.831289E-04
       126  3.659170E-06 -1.172120E-03  1.745855E-04
       127  3.124292E-08 -1.030445E-03  3.304125E-04
       128  2.746594E-06 -7.596259E-04  3.670247E-04
       129  1.859844E-08 -7.047990E-04  3.740551E-04
       130 -2.719949E-06 -7.596231E-04  3.670480E-04
       131 -1.052724E-09 -2.975913E-04  2.186941E-04
       153 -9.916929E-05 -1.517831E-03  8.235098E-05
       154  1.063923E-08 -1.342401E-03 -1.069597E-08
       155  9.886467E-05 -1.517165E-03 -8.229043E-05
       156 -2.961721E-07 -1.114228E-03 -1.475387E-07
       157  1.985893E-05 -6.281983E-04  1.473759E-04
       158  2.760310E-07 -6.413942E-04 -5.739832E-08
       159 -1.971813E-05 -6.281868E-04 -1.473399E-04
       160  8.233910E-08 -2.440890E-04 -1.921308E-09
       182 -4.853677E-06 -1.170737E-03 -1.745510E-04
       183  7.189254E-08 -1.401737E-03 -1.831047E-04
       184  4.977079E-06 -1.170783E-03 -1.746240E-04
       185  3.632385E-08 -1.030855E-03 -3.301240E-04
       186  2.823154E-06 -7.599736E-04 -3.670541E-04
       187  2.781145E-08 -7.046216E-04 -3.739726E-04
       188 -2.776331E-06 -7.599787E-04 -3.670598E-04
       189  3.331873E-09 -2.974461E-04 -2.186534E-04
       211 -9.875787E-05 -1.517143E-03 -8.229722E-05
       212  1.375108E-07 -1.342357E-03 -3.977566E-08
       213  9.933736E-05 -1.517874E-03  8.220875E-05
       214  3.623624E-07 -1.114252E-03 -1.953832E-07
       215  1.976418E-05 -6.281843E-04 -1.473843E-04
       216 -2.283383E-07 -6.413622E-04 -9.600411E-08
       217 -1.982732E-05 -6.281767E-04  1.473588E-04
       218 -7.115873E-08 -2.440878E-04 -1.507327E-08
       250  7.750332E-08 -1.511830E-03  8.164929E-05
       251 -6.843621E-07 -9.575105E-04  9.581436E-09
       252  3.127194E-08 -1.221807E-03 -1.434744E-08
       253  7.940421E-07 -9.575407E-04  1.430474E-09
       254  5.692190E-08 -1.514149E-03 -8.168632E-05
       255  4.242870E-08 -1.089222E-03 -3.150894E-08
       256  1.428146E-08 -6.206548E-04  1.641377E-04
       257  6.772289E-08 -7.240879E-04 -1.099312E-08
       258  1.071889E-08 -6.433812E-04 -1.127724E-09
       259 -3.575076E-08 -7.241020E-04  1.352454E-08
       260  1.850351E-08 -6.202739E-04 -1.641496E-04
       261  6.993133E-09 -2.760382E-04 -9.026108E-09

 forces (fx,fy,fz) for set NALL and time  0.1500000E-01

         5  1.323036E+00 -3.001531E-01 -7.346071E-01
         6 -1.323048E+00 -3.001967E-01 -7.342692E-01
         7  1.316106E+00 -2.801499E-01  7.348397E-01
         8 -1.316312E+00 -2.799410E-01  7.348404E-01
        21 -8.239440E-01  1.307614E+00 -7.096492E+00
        22 -2.379830E-04 -5.774703E-01 -1.119334E+00
        23  8.242739E-01  1.307636E+00 -7.096630E+00
        24 -9.255017E-01  4.658366E+00 -3.733132E+00
        25  1.092187E-03 -1.910941E+00 -2.156739E-03
        26  9.236662E-01  4.636190E+00  3.733625E+00
        27 -8.068114E-01  1.289667E+00  7.094747E+00
        28 -2.890475E-04 -5.588260E-01  1.124170E+00
        29  8.072178E-01  1.290153E+00  7.095313E+00
        30 -9.238362E-01  4.636056E+00  3.733869E+00
        31 -1.371011E-03 -1.911244E+00 -2.237463E-03
        32  9.254410E-01  4.658697E+00 -3.732153E+00
        44  4.883091E+00  1.195542E+01  5.952001E-01
        45 -4.852915E-06 -4.142314E-01  1.039353E-01
        46  3.723146E-06  1.050144E+00 -3.157028E-01
        47 -1.326498E-06 -7.950387E-01  3.680877E-01
        48  1.447499E-06 -7.950378E-01  3.680881E-01
        49 -3.334440E-06  1.050145E+00 -3.157029E-01
        50  3.614611E-06 -4.142330E-01  1.039350E-01
        51 -4.882871E+00  1.195569E+01  5.967741E-01
        74 -4.831630E+00  1.181531E+01 -5.959723E-01
        75  4.242307E-07 -4.142896E-01 -1.039163E-01
        76 -1.119365E-06  1.050186E+00  3.156973E-01
        77  2.760154E-06 -7.950473E-01 -3.680852E-01
        89  4.832357E+00  1.181449E+01 -5.957328E-01
        90 -2.347003E-06 -4.142871E-01 -1.039163E-01
        91  1.447448E-06  1.050186E+00  3.156974E-01
        92 -2.362308E-06 -7.950488E-01 -3.680852E-01
        98 -1.012552E-04  1.020035E+01 -6.516506E+00
        99  3.117817E-03 -3.109145E+00  1.596351E-03
       100  2.060542E-04 -4.191446E+00 -9.871335E-04
       101 -3.020678E-03 -3.108549E+00  1.221027E-03
       102  1.996319E-04  1.020092E+01  6.514433E+00
       124  5.137565E+00  1.342112E+01 -3.687328E-01
       125  8.778261E-04  2.460505E+01  1.104722E+00
       126 -5.138315E+00  1.342029E+01 -3.683971E-01
       127  2.996273E-07 -8.284632E-01  2.078644E-01
       128  3.118263E-06 -1.782026E+00  6.375679E-01
       129 -1.347361E-07  2.100289E+00 -6.314035E-01
       130 -3.431301E-06 -1.782025E+00  6.375673E-01
       131  3.607661E-07 -1.590077E+00  7.361742E-01
       153 -3.639195E+00 -4.093666E+01 -9.263482E-01
       154 -6.431038E-03  2.603533E+01 -9.340623E-04
       155  3.644961E+00 -4.077716E+01  9.279797E-01
       156 -7.967940E-06 -8.285152E-01 -1.686822E-05
       157 -5.195807E-06 -1.782031E+00  4.781694E-01
       158  3.952794E-06  2.100329E+00  7.888856E-06
       159 -8.884102E-08 -1.782073E+00 -4.781714E-01
       160 -8.317644E-07 -1.590088E+00 -2.291806E-06
       182  5.009446E+00  1.355343E+01  3.692392E-01
       183  6.643107E-04  2.446737E+01 -1.103896E+00
       184 -5.010458E+00  1.355258E+01  3.675286E-01
       185  8.797298E-07 -8.300441E-01 -2.078286E-01
       186  1.725464E-06 -1.783542E+00 -6.375498E-01
       187 -3.269483E-07  2.098917E+00  6.313955E-01
       188 -1.969071E-06 -1.783541E+00 -6.375496E-01
       189  2.730868E-07 -1.591559E+00 -7.361671E-01
       211 -3.644836E+00 -4.077503E+01  9.287925E-01
       212  6.329520E-03  2.603554E+01  4.227403E-04
       213  3.639413E+00 -4.093848E+01 -9.306373E-01
       214  6.315700E-06 -8.285157E-01 -1.563586E-05
       215 -1.041578E-06 -1.782072E+00 -4.781715E-01
       216 -3.162787E-06  2.100329E+00  7.318810E-06
       217  4.261989E-06 -1.782032E+00  4.781695E-01
       218  4.156303E-07 -1.590088E+00 -3.160405E-06
       250  4.329135E-04 -8.299851E+01 -1.834265E+00
       251 -2.605989E-02  3.752503E+01  1.943269E-03
       252 -1.014889E-03  5.516393E+01 -4.440485E-04
       253  2.635524E-02  3.752399E+01  1.047622E-03
       254 -5.640679E-04 -8.300996E+01  1.831562E+00
       255  2.242298E-06 -1.657036E+00 -4.133726E-05
       256  5.755390E-07 -3.564062E+00  9.563318E-01
       257  4.939213E-06 -3.564104E+00 -1.815814E-05
       258 -4.447167E-07  4.200662E+00  1.627673E-05
       259 -4.721188E-06 -3.564104E+00 -1.834575E-05
       260  1.153611E-06 -3.564154E+00 -9.563400E-01
       261 -3.394124E-07 -3.180180E+00 -6.376003E-06

 displacements (vx,vy,vz) for set NALL and time  0.2000000E-01

         5  0.000000E+00  0.000000E+00  0.000000E+00
         6  0.000000E+00  0.000000E+00  0.000000E+00
         7  0.000000E+00  0.000000E+00  0.000000E+00
         8  0.000000E+00  0.000000E+00  0.000000E+00
        21  0.000000E+00  0.000000E+00  0.000000E+00
        22  0.000000E+00  0.000000E+00  0.000000E+00
        23  0.000000E+00  0.000000E+00  0.000000E+00
        24  0.000000E+00  0.000000E+00  0.000000E+00
        25  0.000000E+00  0.000000E+00  0.000000E+00
        26  0.000000E+00  0.000000E+00  0.000000E+00
        27  0.000000E+00  0.000000E+00  0.000000E+00
        28  0.000000E+00  0.000000E+00  0.000000E+00
        29  0.000000E+00  0.000000E+00  0.000000E+00
        30  0.000000E+00  0.000000E+00  0.000000E+00
        31  0.000000E+00  0.000000E+00  0.000000E+00
        32  0.000000E+00  0.000000E+00  0.000000E+00
        44 -9.525225E-05  9.873507E-04 -1.439450E-04
        45 -2.233500E-05  7.671115E-04 -2.322124E-04
        46  2.613183E-05  5.628958E-04 -2.655718E-04
        47 -3.289708E-05  2.279644E-04 -1.747640E-04
        48  3.289419E-05  2.279630E-04 -1.747614E-04
        49 -2.616865E-05  5.628761E-04 -2.655525E-04
        50  2.231263E-05  7.671196E-04 -2.322096E-04
        51  9.513409E-05  9.873664E-04 -1.439187E-04
        74  9.287611E-05  9.904349E-04  1.439755E-04
        75  2.076158E-05  7.687490E-04  2.321716E-04
        76 -2.513258E-05  5.618129E-04  2.655238E-04
        77  3.332368E-05  2.274592E-04  1.747525E-04
        89 -9.288375E-05  9.904011E-04  1.439493E-04
        90 -2.085404E-05  7.687645E-04  2.321927E-04
        91  2.513604E-05  5.617971E-04  2.655605E-04
        92 -3.333615E-05  2.274635E-04  1.747812E-04
        98  0.000000E+00  0.000000E+00  0.000000E+00
        99  0.000000E+00  0.000000E+00  0.000000E+00
       100  0.000000E+00  0.000000E+00  0.000000E+00
       101  0.000000E+00  0.000000E+00  0.000000E+00
       102  0.000000E+00  0.000000E+00  0.000000E+00
       124  2.936272E-06  9.107229E-04 -1.356676E-04
       125  2.310569E-09  1.086422E-03 -1.424513E-04
       126 -2.991091E-06  9.107084E-04 -1.356360E-04
       127 -3.447355E-08  8.007667E-04 -2.564336E-04
       128 -2.206179E-06  5.895280E-04 -2.849870E-04
       129  1.109942E-09  5.466712E-04 -2.905363E-04
       130  2.188571E-06  5.895389E-04 -2.850050E-04
       131 -3.362178E-09  2.308811E-04 -1.697232E-04
       153  7.821331E-05  1.181070E-03 -6.395055E-05
       154 -3.174481E-07  1.045613E-03 -1.244953E-08
       155 -7.747873E-05  1.180845E-03  6.394057E-05
       156  1.673353E-07  8.647082E-04  1.719069E-07
       157 -1.571908E-05  4.880731E-04 -1.143022E-04
       158 -1.412920E-07  4.986694E-04  5.938067E-08
       159  1.553000E-05  4.879714E-04  1.142674E-04
       160 -4.162428E-08  1.894277E-04  1.665583E-09
       182  3.494939E-06  9.095503E-04  1.356414E-04
       183 -9.196308E-08  1.087969E-03  1.424917E-04
       184 -3.589289E-06  9.095537E-04  1.357128E-04
       185 -3.776754E-09  8.008552E-04  2.560793E-04
       186 -2.135327E-06  5.898167E-04  2.850205E-04
       187 -3.153212E-08  5.466032E-04  2.904243E-04
       188  2.105163E-06  5.898055E-04  2.850209E-04
       189 -1.287196E-09  2.308203E-04  1.696935E-04
       211  7.745675E-05  1.180862E-03  6.398368E-05
       212  2.824062E-07  1.045690E-03 -3.616477E-08
       213 -7.828006E-05  1.181116E-03 -6.394554E-05
       214 -2.246491E-07  8.646856E-04  1.879522E-07
       215 -1.553736E-05  4.879698E-04  1.142831E-04
       216  1.244048E-07  4.986810E-04  8.290589E-08
       217  1.569004E-05  4.880692E-04 -1.142844E-04
       218  3.169753E-08  1.894235E-04  1.657280E-08
       250 -1.676302E-08  1.171312E-03 -6.350650E-05
       251  5.199050E-07  7.435373E-04 -4.897032E-08