    1C
    1UUSER                                                              
    1UDATE              15.july.2018                                    
    1UTIME              21:34:19                                        
    1UHOST                                                              
    1UPGM               CalculiX                                        
    1UVERSION           Version 2.13                             
    1UCOMPILETIME       jue jun 14 00:40:39 CEST 2018                    
    1UDIR                                                               
    1UDBN                                                               
    1UMAT    1EL                                                        
    2C                            81                                     1
 -1         5 0.00000E+00 0.00000E+00 8.00000E+00
 -1         6 1.00000E+00 0.00000E+00 8.00000E+00
 -1         7 1.00000E+00 1.00000E+00 8.00000E+00
 -1         8 0.00000E+00 1.00000E+00 8.00000E+00
 -1        21 2.50000E-01 0.00000E+00 8.00000E+00
 -1        22 5.00000E-01 0.00000E+00 8.00000E+00
 -1        23 7.50000E-01 0.00000E+00 8.00000E+00
 -1        24 1.00000E+00 2.50000E-01 8.00000E+00
 -1        25 1.00000E+00 5.00000E-01 8.00000E+00
 -1        26 1.00000E+00 7.50000E-01 8.00000E+00
 -1        27 7.50000E-01 1.00000E+00 8.00000E+00
 -1        28 5.00000E-01 1.00000E+00 8.00000E+00
 -1        29 2.50000E-01 1.00000E+00 8.00000E+00
 -1        30 0.00000E+00 7.50000E-01 8.00000E+00
 -1        31 0.00000E+00 5.00000E-01 8.00000E+00
 -1        32 0.00000E+00 2.50000E-01 8.00000E+00
 -1        44 1.00000E+00 0.00000E+00 6.00000E+00
 -1        45 1.00000E+00 0.00000E+00 6.50000E+00
 -1        46 1.00000E+00 0.00000E+00 7.00000E+00
 -1        47 1.00000E+00 0.00000E+00 7.50000E+00
 -1        48 0.00000E+00 0.00000E+00 7.50000E+00
 -1        49 0.00000E+00 0.00000E+00 7.00000E+00
 -1        50 0.00000E+00 0.00000E+00 6.50000E+00
 -1        51 0.00000E+00 0.00000E+00 6.00000E+00
 -1        74 1.00000E+00 1.00000E+00 6.00000E+00
 -1        75 1.00000E+00 1.00000E+00 6.50000E+00
 -1        76 1.00000E+00 1.00000E+00 7.00000E+00
 -1        77 1.00000E+00 1.00000E+00 7.50000E+00
 -1        89 0.00000E+00 1.00000E+00 6.00000E+00
 -1        90 0.00000E+00 1.00000E+00 6.50000E+00
 -1        91 0.00000E+00 1.00000E+00 7.00000E+00
 -1        92 0.00000E+00 1.00000E+00 7.50000E+00
 -1        98 5.00000E-01 2.50000E-01 8.00000E+00
 -1        99 2.50000E-01 5.00000E-01 8.00000E+00
 -1       100 5.00000E-01 5.00000E-01 8.00000E+00
 -1       101 7.50000E-01 5.00000E-01 8.00000E+00
 -1       102 5.00000E-01 7.50000E-01 8.00000E+00
 -1       124 2.50000E-01 0.00000E+00 6.00000E+00
 -1       125 5.00000E-01 0.00000E+00 6.00000E+00
 -1       126 7.50000E-01 0.00000E+00 6.00000E+00
 -1       127 5.00000E-01 0.00000E+00 6.50000E+00
 -1       128 2.50000E-01 0.00000E+00 7.00000E+00
 -1       129 5.00000E-01 0.00000E+00 7.00000E+00
 -1       130 7.50000E-01 0.00000E+00 7.00000E+00
 -1       131 5.00000E-01 0.00000E+00 7.50000E+00
 -1       153 1.00000E+00 2.50000E-01 6.00000E+00
 -1       154 1.00000E+00 5.00000E-01 6.00000E+00
 -1       155 1.00000E+00 7.50000E-01 6.00000E+00
 -1       156 1.00000E+00 5.00000E-01 6.50000E+00
 -1       157 1.00000E+00 2.50000E-01 7.00000E+00
 -1       158 1.00000E+00 5.00000E-01 7.00000E+00
 -1       159 1.00000E+00 7.50000E-01 7.00000E+00
 -1       160 1.00000E+00 5.00000E-01 7.50000E+00
 -1       182 7.50000E-01 1.00000E+00 6.00000E+00
 -1       183 5.00000E-01 1.00000E+00 6.00000E+00
 -1       184 2.50000E-01 1.00000E+00 6.00000E+00
 -1       185 5.00000E-01 1.00000E+00 6.50000E+00
 -1       186 7.50000E-01 1.00000E+00 7.00000E+00
 -1       187 5.00000E-01 1.00000E+00 7.00000E+00
 -1       188 2.50000E-01 1.00000E+00 7.00000E+00
 -1       189 5.00000E-01 1.00000E+00 7.50000E+00
 -1       211 0.00000E+00 7.50000E-01 6.00000E+00
 -1       212 0.00000E+00 5.00000E-01 6.00000E+00
 -1       213 0.00000E+00 2.50000E-01 6.00000E+00
 -1       214 0.00000E+00 5.00000E-01 6.50000E+00
 -1       215 0.00000E+00 7.50000E-01 7.00000E+00
 -1       216 0.00000E+00 5.00000E-01 7.00000E+00
 -1       217 0.00000E+00 2.50000E-01 7.00000E+00
 -1       218 0.00000E+00 5.00000E-01 7.50000E+00
 -1       250 5.00000E-01 2.50000E-01 6.00000E+00
 -1       251 2.50000E-01 5.00000E-01 6.00000E+00
 -1       252 5.00000E-01 5.00000E-01 6.00000E+00
 -1       253 7.50000E-01 5.00000E-01 6.00000E+00
 -1       254 5.00000E-01 7.50000E-01 6.00000E+00
 -1       255 5.00000E-01 5.00000E-01 6.50000E+00
 -1       256 5.00000E-01 2.50000E-01 7.00000E+00
 -1       257 2.50000E-01 5.00000E-01 7.00000E+00
 -1       258 5.00000E-01 5.00000E-01 7.00000E+00
 -1       259 7.50000E-01 5.00000E-01 7.00000E+00
 -1       260 5.00000E-01 7.50000E-01 7.00000E+00
 -1       261 5.00000E-01 5.00000E-01 7.50000E+00
 -3
    3C                             8                                     1
 -1        25    4    0    1
 -2        51       125       252       212        49       129       258       216       124       250
 -2       251       213        50       127       255       214       128       256       257       217
 -1        26    4    0    1
 -2       125        44       154       252       129        46       158       258       126       153
 -2       253       250       127        45       156       255       130       157       259       256
 -1        27    4    0    1
 -2       212       252       183        89       216       258       187        91       251       254
 -2       184       211       214       255       185        90       257       260       188       215
 -1        28    4    0    1
 -2       252       154        74       183       258       158        76       187       253       155
 -2       182       254       255       156        75       185       259       159       186       260
 -1        29    4    0    1
 -2        49       129       258       216         5        22       100        31       128       256
 -2       257       217        48       131       261       218        21        98        99        32
 -1        30    4    0    1
 -2       129        46       158       258        22         6        25       100       130       157
 -2       259       256       131        47       160       261        23        24       101        98
 -1        31    4    0    1
 -2       216       258       187        91        31       100        28         8       257       260
 -2       188       215       218       261       189        92        99       102        29        30
 -1        32    4    0    1
 -2       258       158        76       187       100        25         7        28       259       159
 -2       186       260       261       160        77       189       101        26        27       102
 -3
    1PSTEP                         1           1           1          
  100CL  101 5.00000E-03          81                     1    1           1
 -4  DISP        4    1
 -5  D1          1    2    1    0
 -5  D2          1    2    2    0
 -5  D3          1    2    3    0
 -5  ALL         1    2    0    0    1ALL
 -1         5 0.00000E+00 0.00000E+00 0.00000E+00
 -1         6 0.00000E+00 0.00000E+00 0.00000E+00
 -1         7 0.00000E+00 0.00000E+00 0.00000E+00
 -1         8 0.00000E+00 0.00000E+00 0.00000E+00
 -1        21 0.00000E+00 0.00000E+00 0.00000E+00
 -1        22 0.00000E+00 0.00000E+00 0.00000E+00
 -1        23 0.00000E+00 0.00000E+00 0.00000E+00
 -1        24 0.00000E+00 0.00000E+00 0.00000E+00
 -1        25 0.00000E+00 0.00000E+00 0.00000E+00
 -1        26 0.00000E+00 0.00000E+00 0.00000E+00
 -1        27 0.00000E+00 0.00000E+00 0.00000E+00
 -1        28 0.00000E+00 0.00000E+00 0.00000E+00
 -1        29 0.00000E+00 0.00000E+00 0.00000E+00
 -1        30 0.00000E+00 0.00000E+00 0.00000E+00
 -1        31 0.00000E+00 0.00000E+00 0.00000E+00
 -1        32 0.00000E+00 0.00000E+00 0.00000E+00
 -1        44-5.96868E-05-3.46396E-03 4.48270E-04
 -1        45 5.68295E-05-2.56144E-03 7.85153E-04
 -1        46-4.80229E-05-1.79608E-03 9.49018E-04
 -1        47 1.30921E-04-6.75116E-04 5.43137E-04
 -1        48-1.30947E-04-6.75135E-04 5.43187E-04
 -1        49 4.78981E-05-1.79611E-03 9.49128E-04
 -1        50-5.70778E-05-2.56144E-03 7.85351E-04
 -1        51 5.91329E-05-3.46407E-03 4.48613E-04
 -1        74 3.16896E-04-4.40869E-03-4.94544E-04
 -1        75 1.90088E-04-2.97044E-03-7.84523E-04
 -1        76-1.09836E-04-1.59858E-03-9.49966E-04
 -1        77-2.07613E-04-5.27132E-04-5.58215E-04
 -1        89-3.17450E-04-4.40858E-03-4.94201E-04
 -1        90-1.90337E-04-2.97043E-03-7.84323E-04
 -1        91 1.09711E-04-1.59855E-03-9.49855E-04
 -1        92 2.07587E-04-5.27113E-04-5.58165E-04
 -1        98 0.00000E+00 0.00000E+00 0.00000E+00
 -1        99 0.00000E+00 0.00000E+00 0.00000E+00
 -1       100 0.00000E+00 0.00000E+00 0.00000E+00
 -1       101 0.00000E+00 0.00000E+00 0.00000E+00
 -1       102 0.00000E+00 0.00000E+00 0.00000E+00
 -1       124 1.49914E-04-2.96599E-03 4.29506E-04
 -1       125-2.23216E-07-3.58922E-03 4.48773E-04
 -1       126-1.50404E-04-2.96594E-03 4.29376E-04
 -1       127-1.40222E-07-2.56266E-03 9.03625E-04
 -1       128-9.30890E-06-1.95268E-03 9.48118E-04
 -1       129-4.28609E-08-1.81413E-03 9.41411E-04
 -1       130 9.20532E-06-1.95267E-03 9.48054E-04
 -1       131-8.24695E-09-7.36384E-04 5.56308E-04
 -1       153 6.92656E-05-3.63612E-03 1.90873E-04
 -1       154-1.20452E-04-2.50271E-03-2.09267E-05
 -1       155-6.49853E-05-3.88847E-03-2.38070E-04
 -1       156-1.20100E-04-2.78936E-03-6.45422E-05
 -1       157-2.06330E-05-1.50884E-03 3.92230E-04
 -1       158 8.82252E-05-1.56681E-03-2.94143E-05
 -1       159 4.66439E-05-1.47562E-03-4.11047E-04
 -1       160 3.97310E-05-6.56503E-04 4.87147E-06
 -1       182 1.14995E-04-2.56341E-03-4.71098E-04
 -1       183-2.24392E-07-4.35361E-03-4.76192E-04
 -1       184-1.15486E-04-2.56336E-03-4.70967E-04
 -1       185-1.39834E-07-2.83291E-03-8.74088E-04
 -1       186-4.41760E-05-2.16198E-03-9.82571E-04
 -1       187-4.31515E-08-1.83170E-03-9.63644E-04
 -1       188 4.40723E-05-2.16197E-03-9.82507E-04
 -1       189-8.20686E-09-7.20003E-04-5.64448E-04
 -1       211 6.43384E-05-3.88842E-03-2.37748E-04
 -1       212 1.19740E-04-2.50271E-03-2.05519E-05
 -1       213-6.99119E-05-3.63618E-03 1.91194E-04
 -1       214 1.19879E-04-2.78936E-03-6.43313E-05
 -1       215-4.67891E-05-1.47561E-03-4.10929E-04
 -1       216-8.83912E-05-1.56681E-03-2.93060E-05
 -1       217 2.04875E-05-1.50886E-03 3.92349E-04
 -1       218-3.97622E-05-6.56503E-04 4.90604E-06
 -1       250-2.18823E-07-4.08070E-03 1.74647E-04
 -1       251 2.99241E-05-2.57156E-03-1.03538E-05
 -1       252-2.11714E-07-3.12401E-03-1.59701E-05
 -1       253-3.04764E-05-2.57156E-03-1.04138E-05
 -1       254-2.19610E-07-4.41157E-03-2.53955E-04
 -1       255-1.60102E-07-2.59916E-03-3.20108E-05
 -1       256-3.87671E-08-1.60744E-03 3.95636E-04
 -1       257-4.11178E-05-1.74932E-03-1.19674E-05
 -1       258-3.24440E-08-1.79019E-03-1.45119E-05
 -1       259 4.10041E-05-1.74932E-03-1.20495E-05
 -1       260-3.88698E-08-1.62262E-03-4.18283E-04
 -1       261-1.56390E-08-7.16957E-04-1.94648E-06
 -3
    1PSTEP                         2           2           1          
  100CL  102 1.00000E-02          81                     1    2           1
 -4  DISP        4    1
 -5  D1          1    2    1    0
 -5  D2          1    2    2    0
 -5  D3          1    2    3    0
 -5  ALL         1    2    0    0    1ALL
 -1         5 0.00000E+00 0.00000E+00 0.00000E+00
 -1         6 0.00000E+00 0.00000E+00 0.00000E+00
 -1         7 0.00000E+00 0.00000E+00 0.00000E+00
 -1         8 0.00000E+00 0.00000E+00 0.00000E+00
 -1        21 0.00000E+00 0.00000E+00 0.00000E+00
 -1        22 0.00000E+00 0.00000E+00 0.00000E+00
 -1        23 0.00000E+00 0.00000E+00 0.00000E+00
 -1        24 0.00000E+00 0.00000E+00 0.00000E+00
 -1        25 0.00000E+00 0.00000E+00 0.00000E+00
 -1        26 0.00000E+00 0.00000E+00 0.00000E+00
 -1        27 0.00000E+00 0.00000E+00 0.00000E+00
 -1        28 0.00000E+00 0.00000E+00 0.00000E+00
 -1        29 0.00000E+00 0.00000E+00 0.00000E+00
 -1        30 0.00000E+00 0.00000E+00 0.00000E+00
 -1        31 0.00000E+00 0.00000E+00 0.00000E+00
 -1        32 0.00000E+00 0.00000E+00 0.00000E+00
 -1        44-1.56877E-04 1.60250E-03-2.33798E-04
 -1        45-3.81661E-05 1.24581E-03-3.77156E-04
 -1        46 4.29788E-05 9.15550E-04-4.32162E-04
 -1        47-5.30614E-05 3.70804E-04-2.84004E-04
 -1        48 5.31082E-05 3.70792E-04-2.83995E-04
 -1        49-4.29231E-05 9.15432E-04-4.32122E-04
 -1        50 3.81809E-05 1.24591E-03-3.77338E-04
 -1        51 1.56889E-04 1.60249E-03-2.33807E-04
 -1        74 1.46981E-04 1.61346E-03 2.34129E-04
 -1        75 3.23122E-05 1.25188E-03 3.77293E-04
 -1        76-4.01379E-05 9.12928E-04 4.32257E-04
 -1        77 5.47753E-05 3.68997E-04 2.84061E-04
 -1        89-1.47074E-04 1.61299E-03 2.34014E-04
 -1        90-3.25171E-05 1.25183E-03 3.77226E-04
 -1        91 4.02930E-05 9.12895E-04 4.32275E-04
 -1        92-5.47944E-05 3.68998E-04 2.84129E-04
 -1        98 0.00000E+00 0.00000E+00 0.00000E+00
 -1        99 0.00000E+00 0.00000E+00 0.00000E+00
 -1       100 0.00000E+00 0.00000E+00 0.00000E+00
 -1       101 0.00000E+00 0.00000E+00 0.00000E+00
 -1       102 0.00000E+00 0.00000E+00 0.00000E+00
 -1       124 8.41102E-06 1.48151E-03-2.20278E-04
 -1       125 1.08545E-07 1.76566E-03-2.31335E-04
 -1       126-8.24337E-06 1.48161E-03-2.20447E-04
 -1       127 4.56713E-08 1.30134E-03-4.17772E-04
 -1       128-4.28525E-06 9.58572E-04-4.63422E-04
 -1       129 1.67395E-08 8.89740E-04-4.72447E-04
 -1       130 4.31265E-06 9.58612E-04-4.63400E-04
 -1       131 1.58444E-08 3.75450E-04-2.75983E-04
 -1       153 1.26946E-04 1.91347E-03-1.03737E-04
 -1       154-1.59940E-06 1.69494E-03 1.52162E-07
 -1       155-1.23502E-04 1.92075E-03 1.04068E-04
 -1       156 3.60894E-07 1.40665E-03 7.93728E-07
 -1       157-2.53854E-05 7.93880E-04-1.86033E-04
 -1       158 6.02789E-08 8.09796E-04 2.86277E-07
 -1       159 2.45372E-05 7.92277E-04 1.86071E-04
 -1       160-1.10212E-07 3.08103E-04 5.49955E-09
 -1       182 1.26076E-06 1.47767E-03 2.20610E-04
 -1       183-3.73864E-07 1.77043E-03 2.31479E-04
 -1       184-1.61815E-06 1.47761E-03 2.20621E-04
 -1       185 4.91812E-08 1.30157E-03 4.16638E-04
 -1       186-2.57582E-06 9.60049E-04 4.63653E-04
 -1       187-8.55937E-08 8.89971E-04 4.72199E-04
 -1       188 2.55150E-06 9.59997E-04 4.63644E-04
 -1       189 1.41726E-08 3.75688E-04 2.76042E-04
 -1       211 1.23519E-04 1.92048E-03 1.04264E-04
 -1       212 1.60007E-06 1.69507E-03-1.42943E-07
 -1       213-1.26812E-04 1.91362E-03-1.03858E-04
 -1       214-2.38856E-07 1.40651E-03 7.66585E-07
 -1       215-2.44957E-05 7.92304E-04 1.85998E-04
 -1       216-1.03324E-07 8.09843E-04 2.93281E-07
 -1       217 2.53702E-05 7.93829E-04-1.86027E-04
 -1       218 1.23690E-07 3.08080E-04-1.92764E-08
 -1       250 1.61734E-07 1.91055E-03-1.02957E-04
 -1       251-1.72228E-06 1.20882E-03-2.92629E-07
 -1       252 2.33062E-07 1.54236E-03 3.35888E-08
 -1       253 1.92456E-06 1.20872E-03-9.57466E-09
 -1       254-1.06470E-07 1.90744E-03 1.03507E-04
 -1       255-4.78954E-09 1.37551E-03 1.50053E-07
 -1       256 3.79903E-08 7.82762E-04-2.07249E-04
 -1       257 5.74904E-07 9.14086E-04 9.04963E-08
 -1       258 5.32898E-08 8.11909E-04 8.13336E-08
 -1       259-5.32329E-07 9.14066E-04 5.43474E-08
 -1       260-9.30981E-09 7.84055E-04 2.07385E-04
 -1       261-1.17749E-08 3.48336E-04-1.71587E-08
 -3
    1PSTEP                         3           3           1          
  100CL  103 1.50000E-02          81                     1    3           1
 -4  DISP        4    1
 -5  D1          1    2    1    0
 -5  D2          1    2    2    0
 -5  D3          1    2    3    0
 -5  ALL         1    2    0    0    1ALL
 -1         5 0.00000E+00 0.00000E+00 0.00000E+00
 -1         6 0.00000E+00 0.00000E+00 0.00000E+00
 -1         7 0.00000E+00 0.00000E+00 0.00000E+00
 -1         8 0.00000E+00 0.00000E+00 0.00000E+00
 -1        21 0.00000E+00 0.00000E+00 0.00000E+00
 -1        22 0.00000E+00 0.00000E+00 0.00000E+00
 -1        23 0.00000E+00 0.00000E+00 0.00000E+00
 -1        24 0.00000E+00 0.00000E+00 0.00000E+00
 -1        25 0.00000E+00 0.00000E+00 0.00000E+00
 -1        26 0.00000E+00 0.00000E+00 0.00000E+00
 -1        27 0.00000E+00 0.00000E+00 0.00000E+00
 -1        28 0.00000E+00 0.00000E+00 0.00000E+00
 -1        29 0.00000E+00 0.00000E+00 0.00000E+00
 -1        30 0.00000E+00 0.00000E+00 0.00000E+00
 -1        31 0.00000E+00 0.00000E+00 0.00000E+00
 -1        32 0.00000E+00 0.00000E+00 0.00000E+00
 -1        44 1.26119E-04-1.26800E-03 1.85656E-04
 -1        45 3.07979E-05-9.86283E-04 2.98869E-04
 -1        46-3.44809E-05-7.26571E-04 3.42494E-04
 -1        47 4.18882E-05-2.94308E-04 2.25279E-04
 -1        48-4.18908E-05-2.94299E-04 2.25225E-04
 -1        49 3.44280E-05-7.26534E-04 3.42424E-04
 -1        50-3.06201E-05-9.86354E-04 2.98934E-04
 -1        51-1.25838E-04-1.26830E-03 1.85645E-04
 -1        74-1.18316E-04-1.27373E-03-1.85703E-04
 -1        75-2.66955E-05-9.89829E-04-2.99066E-04
 -1        76 3.26308E-05-7.25023E-04-3.42484E-04
 -1        77-4.30460E-05-2.93351E-04-2.25211E-04
 -1        89 1.18537E-04-1.27345E-03-1.85681E-04
 -1        90 2.68708E-05-9.89774E-04-2.98996E-04
 -1        91-3.27016E-05-7.25064E-04-3.42554E-04
 -1        92 4.30407E-05-2.93365E-04-2.25268E-04
 -1        98 0.00000E+00 0.00000E+00 0.00000E+00
 -1        99 0.00000E+00 0.00000E+00 0.00000E+00
 -1       100 0.00000E+00 0.00000E+00 0.00000E+00
 -1       101 0.00000E+00 0.00000E+00 0.00000E+00
 -1       102 0.00000E+00 0.00000E+00 0.00000E+00
 -1       124-5.89252E-06-1.17485E-03 1.74937E-04
 -1       125 2.07799E-07-1.39921E-03 1.83513E-04
 -1       126 6.17708E-06-1.17483E-03 1.75026E-04
 -1       127 1.08824E-08-1.03192E-03 3.31219E-04
 -1       128 3.30158E-06-7.59658E-04 3.67320E-04
 -1       129 4.51383E-08-7.04843E-04 3.74551E-04
 -1       130-3.26621E-06-7.59650E-04 3.67332E-04
 -1       131-9.96633E-09-2.97603E-04 2.18762E-04
 -1       153-1.01447E-04-1.51790E-03 8.25550E-05
 -1       154 2.08460E-06-1.34530E-03-7.43670E-08
 -1       155 9.87150E-05-1.52284E-03-8.23910E-05
 -1       156 2.32839E-07-1.11494E-03-3.55541E-07
 -1       157 2.02605E-05-6.29428E-04 1.47425E-04
 -1       158-3.75538E-07-6.42010E-04-9.65442E-08
 -1       159-1.95714E-05-6.28221E-04-1.47370E-04
 -1       160-7.60112E-08-2.44139E-04-2.21628E-08
 -1       182-2.77464E-07-1.17322E-03-1.74925E-04
 -1       183 2.07114E-07-1.40033E-03-1.83587E-04
 -1       184 5.33310E-07-1.17321E-03-1.75018E-04
 -1       185-5.71112E-10-1.03103E-03-3.30438E-04
 -1       186 2.02251E-06-7.60033E-04-3.67388E-04
 -1       187 4.55309E-08-7.05030E-04-3.74258E-04
 -1       188-1.99576E-06-7.60027E-04-3.67397E-04
 -1       189-1.26743E-08-2.97865E-04-2.18766E-04
 -1       211-9.85960E-05-1.52262E-03-8.25256E-05
 -1       212-1.88007E-06-1.34532E-03 1.06747E-07
 -1       213 1.01597E-04-1.51815E-03 8.24026E-05
 -1       214-2.68173E-07-1.11494E-03-3.95425E-07
 -1       215 1.96008E-05-6.28262E-04-1.47371E-04
 -1       216 4.66668E-07-6.42015E-04-1.42089E-07
 -1       217-2.02225E-05-6.29395E-04 1.47423E-04
 -1       218 7.44493E-08-2.44141E-04-1.66074E-08
 -1       250 4.63957E-08-1.51239E-03 8.18633E-05
 -1       251 1.11839E-06-9.57826E-04 1.98110E-07
 -1       252-1.57157E-07-1.22308E-03 6.43104E-08
 -1       253-1.14636E-06-9.57819E-04-4.81540E-08
 -1       254 4.66183E-08-1.50906E-03-8.20753E-05
 -1       255 5.32351E-08-1.09070E-03 4.37298E-08
 -1       256 7.80510E-10-6.20527E-04 1.64401E-04
 -1       257-2.57171E-07-7.24675E-04-2.47703E-08
 -1       258-3.55953E-08-6.43040E-04-1.97348E-08
 -1       259 2.55751E-07-7.24672E-04 3.51941E-08
 -1       260 9.66597E-10-6.21464E-04-1.64423E-04
 -1       261 1.60945E-08-2.75936E-04 1.05737E-08
 -3
    1PSTEP                         4           4           1          
  100CL  104 2.00000E-02          81                     1    4           1
 -4  DISP        4    1
 -5  D1          1    2    1    0
 -5  D2          1    2    2    0
 -5  D3          1    2    3    0
 -5  ALL         1    2    0    0    1ALL
 -1         5 0.00000E+00 0.00000E+00 0.00000E+00
 -1         6 0.00000E+00 0.00000E+00 0.00000E+00
 -1         7 0.00000E+00 0.00000E+00 0.00000E+00
 -1         8 0.00000E+00 0.00000E+00 0.00000E+00
 -1        21 0.00000E+00 0.00000E+00 0.00000E+00
 -1        22 0.00000E+00 0.00000E+00 0.00000E+00
 -1        23 0.00000E+00 0.00000E+00 0.00000E+00
 -1        24 0.00000E+00 0.00000E+00 0.00000E+00
 -1        25 0.00000E+00 0.00000E+00 0.00000E+00
 -1        26 0.00000E+00 0.00000E+00 0.00000E+00
 -1        27 0.00000E+00 0.00000E+00 0.00000E+00
 -1        28 0.00000E+00 0.00000E+00 0.00000E+00
 -1        29 0.00000E+00 0.00000E+00 0.00000E+00
 -1        30 0.00000E+00 0.00000E+00 0.00000E+00
 -1        31 0.00000E+00 0.00000E+00 0.00000E+00
 -1        32 0.00000E+00 0.00000E+00 0.00000E+00
 -1        44-1.01854E-04 9.83265E-04-1.44170E-04
 -1        45-2.46422E-05 7.65910E-04-2.32214E-04
 -1        46 2.72019E-05 5.63457E-04-2.65265E-04
 -1        47-3.22146E-05 2.28657E-04-1.74924E-04
 -1        48 3.22154E-05 2.28662E-04-1.74961E-04
 -1        49-2.72685E-05 5.63452E-04-2.65303E-04
 -1        50 2.47443E-05 7.65895E-04-2.32178E-04
 -1        51 1.01823E-04 9.83153E-04-1.44108E-04
 -1        74 9.75434E-05 9.87092E-04 1.44191E-04
 -1        75 2.22720E-05 7.68255E-04 2.32150E-04
 -1        76-2.62785E-05 5.62518E-04 2.65293E-04
 -1        77 3.28990E-05 2.28018E-04 1.74954E-04
 -1        89-9.73958E-05 9.87221E-04 1.44181E-04
 -1        90-2.22647E-05 7.68292E-04 2.32200E-04
 -1        91 2.62644E-05 5.62484E-04 2.65287E-04
 -1        92-3.29087E-05 2.28016E-04 1.74952E-04
 -1        98 0.00000E+00 0.00000E+00 0.00000E+00
 -1        99 0.00000E+00 0.00000E+00 0.00000E+00
 -1       100 0.00000E+00 0.00000E+00 0.00000E+00
 -1       101 0.00000E+00 0.00000E+00 0.00000E+00
 -1       102 0.00000E+00 0.00000E+00 0.00000E+00
 -1       124 7.31727E-06 9.12357E-04-1.35919E-04
 -1       125 1.24206E-07 1.08667E-03-1.42560E-04
 -1       126-7.23225E-06 9.12339E-04-1.35800E-04
 -1       127-3.17684E-08 8.01404E-04-2.56959E-04
 -1       128-2.95945E-06 5.89271E-04-2.85134E-04
 -1       129 3.56971E-08 5.47095E-04-2.91078E-04
 -1       130 2.96884E-06 5.89287E-04-2.85148E-04
 -1       131-7.62113E-09 2.30827E-04-1.69725E-04
 -1       153 8.18545E-05 1.17944E-03-6.40144E-05
 -1       154-8.44966E-07 1.05177E-03-5.50455E-08
 -1       155-8.02335E-05 1.18328E-03 6.41274E-05
 -1       156-3.15632E-08 8.65720E-04 2.62237E-07
 -1       157-1.66085E-05 4.89087E-04-1.14313E-04
 -1       158 2.23097E-07 4.98842E-04 9.47286E-08
 -1       159 1.62820E-05 4.88198E-04 1.14260E-04
 -1       160-7.39296E-09 1.89000E-04 3.31564E-09
 -1       182 3.05405E-06 9.11029E-04 1.35901E-04
 -1       183 1.75557E-08 1.08818E-03 1.42734E-04
 -1       184-2.98938E-06 9.11056E-04 1.35955E-04
 -1       185 1.35531E-08 8.01107E-04 2.56519E-04
 -1       186-2.03185E-06 5.89582E-04 2.85176E-04
 -1       187-7.74339E-09 5.46919E-04 2.90875E-04
 -1       188 2.02416E-06 5.89573E-04 2.85164E-04
 -1       189-4.94669E-09 2.30904E-04 1.69711E-04
 -1       211 8.03105E-05 1.18342E-03 6.40912E-05
 -1       212 9.33501E-07 1.05186E-03 1.18409E-08
 -1       213-8.18596E-05 1.17939E-03-6.40884E-05
 -1       214-1.69795E-08 8.65696E-04 2.52902E-07
 -1       215-1.62631E-05 4.88179E-04 1.14271E-04
 -1       216-1.86677E-07 4.98851E-04 8.64650E-08
 -1       217 1.66003E-05 4.89097E-04-1.14306E-04
 -1       218 1.38797E-09 1.88995E-04 1.29424E-08
 -1       250 3.13611E-08 1.17428E-03-6.36162E-05
 -1       251-1.29070E-06 7.43296E-04 1.23194E-08
 -1       252-9.03709E-08 9.47401E-04 1.59698E-08
 -1       253 1.25419E-06 7.43248E-04-1.09128E-07
 -1       254-3.38025E-08 1.17164E-03 6.36728E-05
 -1       255 1.55624E-08 8.47592E-04 1.28429E-08
 -1       256 2.54377E-09 4.80940E-04-1.27735E-04
 -1       257 2.69627E-07 5.63002E-04-1.18786E-08
 -1       258-2.46891E-08 4.98232E-04 5.31783E-09
 -1       259-2.80638E-07 5.62998E-04 1.31545E-08
 -1       260-1.65311E-08 4.81597E-04 1.27776E-04
 -1       261 5.68431E-09 2.14224E-04-1.15915E-08
 -3
    1PSTEP                         5           5           1          
  100CL  105 2.50000E-02          81                     1    5           1
 -4  DISP        4    1
 -5  D1          1    2    1    0
 -5  D2          1    2    2    0
 -5  D3          1    2    3    0
 -5  ALL         1    2    0    0    1ALL
 -1         5 0.00000E+00 0.00000E+00 0.00000E+00
 -1         6 0.00000E+00 0.00000E+00 0.00000E+00
 -1         7 0.00000E+00 0.00000E+00 0.00000E+00
 -1         8 0.00000E+00 0.00000E+00 0.00000E+00
 -1        21 0.00000E+00 0.00000E+00 0.00000E+00
 -1        22 0.00000E+00 0.00000E+00 0.00000E+00
 -1        23 0.00000E+00 0.00000E+00 0.00000E+00
 -1        24 0.00000E+00 0.00000E+00 0.00000E+00
 -1        25 0.00000E+00 0.00000E+00 0.00000E+00
 -1        26 0.00000E+00 0.00000E+00 0.00000E+00
 -1        27 0.00000E+00 0.00000E+00 0.00000E+00
 -1        28 0.00000E+00 0.00000E+00 0.00000E+00
 -1        29 0.00000E+00 0.00000E+00 0.00000E+00
 -1        30 0.00000E+00 0.00000E+00 0.00000E+00
 -1        31 0.00000E+00 0.00000E+00 0.00000E+00
 -1        32 0.00000E+00 0.00000E+00 0.00000E+00
 -1        44 7.59431E-05-7.42046E-04 1.08872E-04
 -1        45 1.87688E-05-5.77718E-04 1.75220E-04
 -1        46-2.05503E-05-4.25943E-04 2.00628E-04
 -1        47 2.43388E-05-1.72689E-04 1.32089E-04
 -1        48-2.43381E-05-1.72684E-04 1.32075E-04
 -1        49 2.05432E-05-4.25934E-04 2.00607E-04
 -1        50-1.87244E-05-5.77720E-04 1.75220E-04
 -1        51-7.58913E-05-7.42081E-04 1.08864E-04
 -1        74-7.04234E-05-7.46669E-04-1.08923E-04
 -1        75-1.57581E-05-5.80492E-04-1.75344E-04
 -1        76 1.92855E-05-4.24790E-04-2.00625E-04
 -1        77-2.51861E-05-1.71929E-04-1.32056E-04
 -1        89 7.04976E-05-7.46574E-04-1.08900E-04
 -1        90 1.58101E-05-5.80485E-04-1.75336E-04
 -1        91-1.92846E-05-4.24788E-04-2.00644E-04
 -1        92 2.51908E-05-1.71930E-04-1.32069E-04
 -1        98 0.00000E+00 0.00000E+00 0.00000E+00
 -1        99 0.00000E+00 0.00000E+00 0.00000E+00
 -1       100 0.00000E+00 0.00000E+00 0.00000E+00
 -1       101 0.00000E+00 0.00000E+00 0.00000E+00
 -1       102 0.00000E+00 0.00000E+00 0.00000E+00
 -1       124-4.83188E-06-6.89079E-04 1.02637E-04
 -1       125 4.62375E-08-8.20212E-04 1.07597E-04
 -1       126 4.89400E-06-6.89085E-04 1.02668E-04
 -1       127 3.79523E-09-6.05080E-04 1.94299E-04
 -1       128 2.17367E-06-4.45092E-04 2.15339E-04
 -1       129 1.14835E-08-4.13146E-04 2.19727E-04
 -1       130-2.16325E-06-4.45092E-04 2.15343E-04
 -1       131-1.71241E-09-1.74349E-04 1.28208E-04
 -1       153-6.07517E-05-8.89493E-04 4.84148E-05
 -1       154 1.31027E-06-7.90891E-04-2.14596E-08
 -1       155 5.87248E-05-8.93866E-04-4.83699E-05
 -1       156 1.01542E-07-6.53731E-04-2.95981E-07
 -1       157 1.22070E-05-3.69186E-04 8.64004E-05
 -1       158-2.66828E-07-3.76360E-04-8.34481E-08
 -1       159-1.17445E-05-3.68163E-04-8.63491E-05
 -1       160-2.63569E-08-1.42907E-04-6.29584E-09
 -1       182-1.72518E-07-6.87680E-04-1.02632E-04
 -1       183 5.10759E-08-8.21520E-04-1.07747E-04
 -1       184 2.51332E-07-6.87651E-04-1.02627E-04
 -1       185 1.51805E-08-6.04582E-04-1.93729E-04
 -1       186 1.13509E-06-4.45406E-04-2.15390E-04
 -1       187 1.20639E-08-4.13064E-04-2.19487E-04
 -1       188-1.12005E-06-4.45401E-04-2.15396E-04
 -1       189 2.49904E-10-1.74491E-04-1.28197E-04
 -1       211-5.86762E-05-8.93799E-04-4.84005E-05
 -1       212-1.25732E-06-7.90877E-04-8.07454E-10
 -1       213 6.07882E-05-8.89518E-04 4.83825E-05
 -1       214-8.51468E-08-6.53723E-04-3.10659E-07
 -1       215 1.17592E-05-3.68164E-04-8.63540E-05
 -1       216 2.88468E-07-3.76359E-04-9.91050E-08
 -1       217-1.21964E-05-3.69178E-04 8.63916E-05
 -1       218 2.95567E-08-1.42905E-04-1.13883E-08
 -1       250 2.36839E-08-8.87226E-04 4.79796E-05
 -1       251 1.25990E-06-5.61326E-04 4.30629E-08
 -1       252-7.82740E-09-7.16693E-04-3.59266E-08
 -1       253-1.23722E-06-5.61333E-04 1.63031E-08
 -1       254 2.38089E-08-8.84358E-04-4.81942E-05
 -1       255 1.56342E-08-6.39629E-04 3.05712E-08
 -1       256 5.36503E-09-3.63392E-04 9.64256E-05
 -1       257-2.72098E-07-4.24917E-04 1.53080E-09
 -1       258 8.56537E-10-3.76630E-04-1.98059E-09
 -1       259 2.81946E-07-4.24918E-04 1.33726E-08
 -1       260 6.29394E-09-3.64118E-04-9.64372E-05
 -1       261 3.53605E-09-1.61709E-04 4.02097E-09
 -3
    1PSTEP                         6           6           1          
  100CL  106 3.00000E-02          81                     1    6           1
 -4  DISP        4    1
 -5  D1          1    2    1    0
 -5  D2          1    2    2    0
 -5  D3          1    2    3    0
 -5  ALL         1    2    0    0    1ALL
 -1         5 0.00000E+00 0.00000E+00 0.00000E+00
 -1         6 0.00000E+00 0.00000E+00 0.00000E+00
 -1         7 0.00000E+00 0.00000E+00 0.00000E+00
 -1         8 0.00000E+00 0.00000E+00 0.00000E+00
 -1        21 0.00000E+00 0.00000E+00 0.00000E+00
 -1        22 0.00000E+00 0.00000E+00 0.00000E+00
 -1        23 0.00000E+00 0.00000E+00 0.00000E+00
 -1        24 0.00000E+00 0.00000E+00 0.00000E+00
 -1        25 0.00000E+00 0.00000E+00 0.00000E+00
 -1        26 0.00000E+00 0.00000E+00 0.00000E+00
 -1        27 0.00000E+00 0.00000E+00 0.00000E+00
 -1        28 0.00000E+00 0.00000E+00 0.00000E+00
 -1        29 0.00000E+00 0.00000E+00 0.00000E+00
 -1        30 0.00000E+00 0.00000E+00 0.00000E+00
 -1        31 0.00000E+00 0.00000E+00 0.00000E+00
 -1        32 0.00000E+00 0.00000E+00 0.00000E+00
 -1        44-5.42399E-05 5.38659E-04-7.88503E-05
 -1        45-1.30175E-05 4.19217E-04-1.27010E-04
 -1        46 1.47036E-05 3.08517E-04-1.45300E-04
 -1        47-1.77624E-05 1.25071E-04-9.57290E-05