    1C
    1UUSER                                                              
    1UDATE              15.july.2018                                    
    1UTIME              20:07:11                                        
    1UHOST                                                              
    1UPGM               CalculiX                                        
    1UVERSION           Version 2.13                             
    1UCOMPILETIME       jue jun 14 00:40:39 CEST 2018                    
    1UDIR                                                               
    1UDBN                                                               
    1UMAT    1EL                                                        
    2C                            81                                     1
 -1         5 0.00000E+00 0.00000E+00 8.00000E+00
 -1         6 1.00000E+00 0.00000E+00 8.00000E+00
 -1         7 1.00000E+00 1.00000E+00 8.00000E+00
 -1         8 0.00000E+00 1.00000E+00 8.00000E+00
 -1        21 2.50000E-01 0.00000E+00 8.00000E+00
 -1        22 5.00000E-01 0.00000E+00 8.00000E+00
 -1        23 7.50000E-01 0.00000E+00 8.00000E+00
 -1        24 1.00000E+00 2.50000E-01 8.00000E+00
 -1        25 1.00000E+00 5.00000E-01 8.00000E+00
 -1        26 1.00000E+00 7.50000E-01 8.00000E+00
 -1        27 7.50000E-01 1.00000E+00 8.00000E+00
 -1        28 5.00000E-01 1.00000E+00 8.00000E+00
 -1        29 2.50000E-01 1.00000E+00 8.00000E+00
 -1        30 0.00000E+00 7.50000E-01 8.00000E+00
 -1        31 0.00000E+00 5.00000E-01 8.00000E+00
 -1        32 0.00000E+00 2.50000E-01 8.00000E+00
 -1        44 1.00000E+00 0.00000E+00 6.00000E+00
 -1        45 1.00000E+00 0.00000E+00 6.50000E+00
 -1        46 1.00000E+00 0.00000E+00 7.00000E+00
 -1        47 1.00000E+00 0.00000E+00 7.50000E+00
 -1        48 0.00000E+00 0.00000E+00 7.50000E+00
 -1        49 0.00000E+00 0.00000E+00 7.00000E+00
 -1        50 0.00000E+00 0.00000E+00 6.50000E+00
 -1        51 0.00000E+00 0.00000E+00 6.00000E+00
 -1        74 1.00000E+00 1.00000E+00 6.00000E+00
 -1        75 1.00000E+00 1.00000E+00 6.50000E+00
 -1        76 1.00000E+00 1.00000E+00 7.00000E+00
 -1        77 1.00000E+00 1.00000E+00 7.50000E+00
 -1        89 0.00000E+00 1.00000E+00 6.00000E+00
 -1        90 0.00000E+00 1.00000E+00 6.50000E+00
 -1        91 0.00000E+00 1.00000E+00 7.00000E+00
 -1        92 0.00000E+00 1.00000E+00 7.50000E+00
 -1        98 5.00000E-01 2.50000E-01 8.00000E+00
 -1        99 2.50000E-01 5.00000E-01 8.00000E+00
 -1       100 5.00000E-01 5.00000E-01 8.00000E+00
 -1       101 7.50000E-01 5.00000E-01 8.00000E+00
 -1       102 5.00000E-01 7.50000E-01 8.00000E+00
 -1       124 2.50000E-01 0.00000E+00 6.00000E+00
 -1       125 5.00000E-01 0.00000E+00 6.00000E+00
 -1       126 7.50000E-01 0.00000E+00 6.00000E+00
 -1       127 5.00000E-01 0.00000E+00 6.50000E+00
 -1       128 2.50000E-01 0.00000E+00 7.00000E+00
 -1       129 5.00000E-01 0.00000E+00 7.00000E+00
 -1       130 7.50000E-01 0.00000E+00 7.00000E+00
 -1       131 5.00000E-01 0.00000E+00 7.50000E+00
 -1       153 1.00000E+00 2.50000E-01 6.00000E+00
 -1       154 1.00000E+00 5.00000E-01 6.00000E+00
 -1       155 1.00000E+00 7.50000E-01 6.00000E+00
 -1       156 1.00000E+00 5.00000E-01 6.50000E+00
 -1       157 1.00000E+00 2.50000E-01 7.00000E+00
 -1       158 1.00000E+00 5.00000E-01 7.00000E+00
 -1       159 1.00000E+00 7.50000E-01 7.00000E+00
 -1       160 1.00000E+00 5.00000E-01 7.50000E+00
 -1       182 7.50000E-01 1.00000E+00 6.00000E+00
 -1       183 5.00000E-01 1.00000E+00 6.00000E+00
 -1       184 2.50000E-01 1.00000E+00 6.00000E+00
 -1       185 5.00000E-01 1.00000E+00 6.50000E+00
 -1       186 7.50000E-01 1.00000E+00 7.00000E+00
 -1       187 5.00000E-01 1.00000E+00 7.00000E+00
 -1       188 2.50000E-01 1.00000E+00 7.00000E+00
 -1       189 5.00000E-01 1.00000E+00 7.50000E+00
 -1       211 0.00000E+00 7.50000E-01 6.00000E+00
 -1       212 0.00000E+00 5.00000E-01 6.00000E+00
 -1       213 0.00000E+00 2.50000E-01 6.00000E+00
 -1       214 0.00000E+00 5.00000E-01 6.50000E+00
 -1       215 0.00000E+00 7.50000E-01 7.00000E+00
 -1       216 0.00000E+00 5.00000E-01 7.00000E+00
 -1       217 0.00000E+00 2.50000E-01 7.00000E+00
 -1       218 0.00000E+00 5.00000E-01 7.50000E+00
 -1       250 5.00000E-01 2.50000E-01 6.00000E+00
 -1       251 2.50000E-01 5.00000E-01 6.00000E+00
 -1       252 5.00000E-01 5.00000E-01 6.00000E+00
 -1       253 7.50000E-01 5.00000E-01 6.00000E+00
 -1       254 5.00000E-01 7.50000E-01 6.00000E+00
 -1       255 5.00000E-01 5.00000E-01 6.50000E+00
 -1       256 5.00000E-01 2.50000E-01 7.00000E+00
 -1       257 2.50000E-01 5.00000E-01 7.00000E+00
 -1       258 5.00000E-01 5.00000E-01 7.00000E+00
 -1       259 7.50000E-01 5.00000E-01 7.00000E+00
 -1       260 5.00000E-01 7.50000E-01 7.00000E+00
 -1       261 5.00000E-01 5.00000E-01 7.50000E+00
 -3
    3C                             8                                     1
 -1        25    4    0    1
 -2        51       125       252       212        49       129       258       216       124       250
 -2       251       213        50       127       255       214       128       256       257       217
 -1        26    4    0    1
 -2       125        44       154       252       129        46       158       258       126       153
 -2       253       250       127        45       156       255       130       157       259       256
 -1        27    4    0    1
 -2       212       252       183        89       216       258       187        91       251       254
 -2       184       211       214       255       185        90       257       260       188       215
 -1        28    4    0    1
 -2       252       154        74       183       258       158        76       187       253       155
 -2       182       254       255       156        75       185       259       159       186       260
 -1        29    4    0    1
 -2        49       129       258       216         5        22       100        31       128       256
 -2       257       217        48       131       261       218        21        98        99        32
 -1        30    4    0    1
 -2       129        46       158       258        22         6        25       100       130       157
 -2       259       256       131        47       160       261        23        24       101        98
 -1        31    4    0    1
 -2       216       258       187        91        31       100        28         8       257       260
 -2       188       215       218       261       189        92        99       102        29        30
 -1        32    4    0    1
 -2       258       158        76       187       100        25         7        28       259       159
 -2       186       260       261       160        77       189       101        26        27       102
 -3
    1PSTEP                         1           1           1          
  100CL  101 5.00000E-03          81                     1    1           1
 -4  DISP        4    1
 -5  D1          1    2    1    0
 -5  D2          1    2    2    0
 -5  D3          1    2    3    0
 -5  ALL         1    2    0    0    1ALL
 -1         5 0.00000E+00 0.00000E+00 0.00000E+00
 -1         6 0.00000E+00 0.00000E+00 0.00000E+00
 -1         7 0.00000E+00 0.00000E+00 0.00000E+00
 -1         8 0.00000E+00 0.00000E+00 0.00000E+00
 -1        21 0.00000E+00 0.00000E+00 0.00000E+00
 -1        22 0.00000E+00 0.00000E+00 0.00000E+00
 -1        23 0.00000E+00 0.00000E+00 0.00000E+00
 -1        24 0.00000E+00 0.00000E+00 0.00000E+00
 -1        25 0.00000E+00 0.00000E+00 0.00000E+00
 -1        26 0.00000E+00 0.00000E+00 0.00000E+00
 -1        27 0.00000E+00 0.00000E+00 0.00000E+00
 -1        28 0.00000E+00 0.00000E+00 0.00000E+00
 -1        29 0.00000E+00 0.00000E+00 0.00000E+00
 -1        30 0.00000E+00 0.00000E+00 0.00000E+00
 -1        31 0.00000E+00 0.00000E+00 0.00000E+00
 -1        32 0.00000E+00 0.00000E+00 0.00000E+00
 -1        44-6.02084E-05-3.46551E-03 4.48521E-04
 -1        45 5.67870E-05-2.56236E-03 7.85392E-04
 -1        46-4.77398E-05-1.79568E-03 9.49351E-04
 -1        47 1.31014E-04-6.74990E-04 5.43229E-04
 -1        48-1.31014E-04-6.74991E-04 5.43230E-04
 -1        49 4.77381E-05-1.79568E-03 9.49352E-04
 -1        50-5.67899E-05-2.56236E-03 7.85394E-04
 -1        51 6.02022E-05-3.46551E-03 4.48524E-04
 -1        74 3.18977E-04-4.41249E-03-4.94587E-04
 -1        75 1.91107E-04-2.97241E-03-7.84754E-04
 -1        76-1.10358E-04-1.59750E-03-9.49879E-04
 -1        77-2.07909E-04-5.26652E-04-5.58176E-04
 -1        89-3.18983E-04-4.41250E-03-4.94584E-04
 -1        90-1.91109E-04-2.97241E-03-7.84752E-04
 -1        91 1.10357E-04-1.59750E-03-9.49878E-04
 -1        92 2.07908E-04-5.26651E-04-5.58176E-04
 -1        98 0.00000E+00 0.00000E+00 0.00000E+00
 -1        99 0.00000E+00 0.00000E+00 0.00000E+00
 -1       100 0.00000E+00 0.00000E+00 0.00000E+00
 -1       101 0.00000E+00 0.00000E+00 0.00000E+00
 -1       102 0.00000E+00 0.00000E+00 0.00000E+00
 -1       124 1.49708E-04-2.96632E-03 4.29742E-04
 -1       125-2.25072E-09-3.58953E-03 4.48540E-04
 -1       126-1.49713E-04-2.96632E-03 4.29741E-04
 -1       127-1.73081E-09-2.56257E-03 9.03703E-04
 -1       128-9.15827E-06-1.95283E-03 9.48171E-04
 -1       129-4.81454E-10-1.81456E-03 9.41527E-04
 -1       130 9.15686E-06-1.95283E-03 9.48170E-04
 -1       131-1.50152E-10-7.36455E-04 5.56388E-04
 -1       153 7.00189E-05-3.63592E-03 1.91306E-04
 -1       154-1.20338E-04-2.50292E-03-2.09441E-05
 -1       155-6.51027E-05-3.88891E-03-2.37874E-04
 -1       156-1.20311E-04-2.78949E-03-6.46168E-05
 -1       157-2.05772E-05-1.50897E-03 3.92379E-04
 -1       158 8.84976E-05-1.56695E-03-2.93880E-05
 -1       159 4.67958E-05-1.47555E-03-4.11070E-04
 -1       160 3.98239E-05-6.56524E-04 4.90946E-06
 -1       182 1.14930E-04-2.56265E-03-4.71117E-04
 -1       183-2.38941E-09-4.35563E-03-4.76664E-04
 -1       184-1.14935E-04-2.56265E-03-4.71116E-04
 -1       185-1.67885E-09-2.83336E-03-8.74063E-04
 -1       186-4.41242E-05-2.16236E-03-9.82690E-04
 -1       187-5.42052E-10-1.83174E-03-9.63751E-04
 -1       188 4.41228E-05-2.16236E-03-9.82689E-04
 -1       189-1.45974E-10-7.19921E-04-5.64512E-04
 -1       211 6.50963E-05-3.88891E-03-2.37872E-04
 -1       212 1.20333E-04-2.50292E-03-2.09419E-05
 -1       213-7.00248E-05-3.63592E-03 1.91309E-04
 -1       214 1.20308E-04-2.78949E-03-6.46149E-05
 -1       215-4.67973E-05-1.47555E-03-4.11068E-04
 -1       216-8.84993E-05-1.56695E-03-2.93866E-05
 -1       217 2.05756E-05-1.50897E-03 3.92381E-04
 -1       218-3.98246E-05-6.56524E-04 4.91021E-06
 -1       250-2.61883E-09-4.08200E-03 1.74300E-04
 -1       251 3.03182E-05-2.57231E-03-1.04366E-05
 -1       252-3.15935E-09-3.12382E-03-1.58937E-05
 -1       253-3.03239E-05-2.57231E-03-1.04381E-05
 -1       254-2.81300E-09-4.41336E-03-2.54373E-04
 -1       255-1.54593E-09-2.59923E-03-3.20325E-05
 -1       256-7.06992E-10-1.60749E-03 3.95683E-04
 -1       257-4.11512E-05-1.74935E-03-1.20142E-05
 -1       258-8.46721E-10-1.79045E-03-1.45573E-05
 -1       259 4.11496E-05-1.74935E-03-1.20147E-05
 -1       260-7.12264E-10-1.62255E-03-4.18277E-04
 -1       261-1.55122E-10-7.17078E-04-1.98592E-06
 -3
    1PSTEP                         2           2           1          
  100CL  102 1.00000E-02          81                     1    2           1
 -4  DISP        4    1
 -5  D1          1    2    1    0
 -5  D2          1    2    2    0
 -5  D3          1    2    3    0
 -5  ALL         1    2    0    0    1ALL
 -1         5 0.00000E+00 0.00000E+00 0.00000E+00
 -1         6 0.00000E+00 0.00000E+00 0.00000E+00
 -1         7 0.00000E+00 0.00000E+00 0.00000E+00
 -1         8 0.00000E+00 0.00000E+00 0.00000E+00
 -1        21 0.00000E+00 0.00000E+00 0.00000E+00
 -1        22 0.00000E+00 0.00000E+00 0.00000E+00
 -1        23 0.00000E+00 0.00000E+00 0.00000E+00
 -1        24 0.00000E+00 0.00000E+00 0.00000E+00
 -1        25 0.00000E+00 0.00000E+00 0.00000E+00
 -1        26 0.00000E+00 0.00000E+00 0.00000E+00
 -1        27 0.00000E+00 0.00000E+00 0.00000E+00
 -1        28 0.00000E+00 0.00000E+00 0.00000E+00
 -1        29 0.00000E+00 0.00000E+00 0.00000E+00
 -1        30 0.00000E+00 0.00000E+00 0.00000E+00
 -1        31 0.00000E+00 0.00000E+00 0.00000E+00
 -1        32 0.00000E+00 0.00000E+00 0.00000E+00
 -1        44-1.51437E-04 1.61014E-03-2.33991E-04
 -1        45-3.51700E-05 1.25051E-03-3.77299E-04
 -1        46 4.12106E-05 9.12858E-04-4.32260E-04
 -1        47-5.40775E-05 3.69565E-04-2.84044E-04
 -1        48 5.40685E-05 3.69557E-04-2.84023E-04
 -1        49-4.12243E-05 9.12849E-04-4.32226E-04
 -1        50 3.50887E-05 1.25050E-03-3.77265E-04
 -1        51 1.51361E-04 1.61013E-03-2.33966E-04
 -1        74 1.52831E-04 1.61340E-03 2.34176E-04
 -1        75 3.52437E-05 1.25143E-03 3.77185E-04
 -1        76-4.16169E-05 9.12882E-04 4.32193E-04
 -1        77 5.39949E-05 3.69144E-04 2.84108E-04
 -1        89-1.52975E-04 1.61339E-03 2.34234E-04
 -1        90-3.53247E-05 1.25142E-03 3.77222E-04
 -1        91 4.15782E-05 9.12882E-04 4.32229E-04
 -1        92-5.40055E-05 3.69147E-04 2.84125E-04
 -1        98 0.00000E+00 0.00000E+00 0.00000E+00
 -1        99 0.00000E+00 0.00000E+00 0.00000E+00
 -1       100 0.00000E+00 0.00000E+00 0.00000E+00
 -1       101 0.00000E+00 0.00000E+00 0.00000E+00
 -1       102 0.00000E+00 0.00000E+00 0.00000E+00
 -1       124 6.51530E-06 1.47917E-03-2.20539E-04
 -1       125-7.28594E-08 1.76980E-03-2.31339E-04
 -1       126-6.62569E-06 1.47918E-03-2.20570E-04
 -1       127-2.55994E-08 1.30152E-03-4.17350E-04
 -1       128-3.71597E-06 9.59283E-04-4.63550E-04
 -1       129-2.02872E-08 8.89778E-04-4.72382E-04
 -1       130 3.68909E-06 9.59287E-04-4.63563E-04
 -1       131-1.04426E-09 3.75377E-04-2.76046E-04
 -1       153 1.24950E-04 1.91468E-03-1.03953E-04
 -1       154 1.40431E-06 1.69392E-03 6.96007E-08
 -1       155-1.26263E-04 1.91844E-03 1.04146E-04
 -1       156 7.11690E-07 1.40654E-03 1.50281E-07
 -1       157-2.50768E-05 7.93214E-04-1.86092E-04
 -1       158-4.91178E-07 8.10031E-04 9.36208E-08
 -1       159 2.51941E-05 7.92778E-04 1.86172E-04
 -1       160-2.73903E-07 3.08190E-04-5.21971E-08
 -1       182 4.77669E-06 1.47755E-03 2.20740E-04
 -1       183-6.15509E-08 1.77364E-03 2.31419E-04
 -1       184-4.90658E-06 1.47755E-03 2.20780E-04
 -1       185-3.87182E-08 1.30348E-03 4.17493E-04
 -1       186-3.33486E-06 9.60241E-04 4.63712E-04
 -1       187-1.75720E-08 8.89306E-04 4.72626E-04
 -1       188 3.29777E-06 9.60241E-04 4.63726E-04
 -1       189-4.35114E-09 3.75178E-04 2.76109E-04
 -1       211 1.26126E-04 1.91843E-03 1.04211E-04
 -1       212-1.53719E-06 1.69391E-03 1.12785E-07
 -1       213-1.25050E-04 1.91468E-03-1.03901E-04
 -1       214-7.82300E-07 1.40653E-03 1.92737E-07
 -1       215-2.52335E-05 7.92776E-04 1.86203E-04
 -1       216 4.52908E-07 8.10027E-04 1.25408E-07
 -1       217 2.50491E-05 7.93207E-04-1.86064E-04
 -1       218 2.62566E-07 3.08188E-04-3.72269E-08
 -1       250-6.74490E-08 1.91229E-03-1.03079E-04
 -1       251-1.78606E-06 1.21011E-03 8.38360E-08
 -1       252-5.70275E-08 1.54113E-03 6.63239E-08
 -1       253 1.66390E-06 1.21011E-03 7.06223E-08
 -1       254-6.00212E-08 1.91143E-03 1.03371E-04
 -1       255-3.69638E-08 1.37473E-03 1.79931E-07
 -1       256-1.79711E-08 7.83099E-04-2.07273E-04
 -1       257 4.61354E-07 9.13999E-04 6.52454E-08
 -1       258-1.57042E-08 8.12794E-04 6.86193E-08
 -1       259-4.95548E-07 9.14001E-04 4.75866E-08
 -1       260-1.68219E-08 7.83472E-04 2.07385E-04
 -1       261-4.81868E-09 3.48693E-04 1.92248E-08
 -3
    1PSTEP                         3           3           1          
  100CL  103 1.50000E-02          81                     1    3           1
 -4  DISP        4    1
 -5  D1          1    2    1    0
 -5  D2          1    2    2    0
 -5  D3          1    2    3    0
 -5  ALL         1    2    0    0    1ALL
 -1         5 0.00000E+00 0.00000E+00 0.00000E+00
 -1         6 0.00000E+00 0.00000E+00 0.00000E+00
 -1         7 0.00000E+00 0.00000E+00 0.00000E+00
 -1         8 0.00000E+00 0.00000E+00 0.00000E+00
 -1        21 0.00000E+00 0.00000E+00 0.00000E+00
 -1        22 0.00000E+00 0.00000E+00 0.00000E+00
 -1        23 0.00000E+00 0.00000E+00 0.00000E+00
 -1        24 0.00000E+00 0.00000E+00 0.00000E+00
 -1        25 0.00000E+00 0.00000E+00 0.00000E+00
 -1        26 0.00000E+00 0.00000E+00 0.00000E+00
 -1        27 0.00000E+00 0.00000E+00 0.00000E+00
 -1        28 0.00000E+00 0.00000E+00 0.00000E+00
 -1        29 0.00000E+00 0.00000E+00 0.00000E+00
 -1        30 0.00000E+00 0.00000E+00 0.00000E+00
 -1        31 0.00000E+00 0.00000E+00 0.00000E+00
 -1        32 0.00000E+00 0.00000E+00 0.00000E+00
 -1        44 1.22984E-04-1.27316E-03 1.85124E-04
 -1        45 2.86750E-05-9.90119E-04 2.98365E-04
 -1        46-3.28627E-05-7.22394E-04 3.41831E-04
 -1        47 4.25832E-05-2.92942E-04 2.25028E-04
 -1        48-4.25700E-05-2.92916E-04 2.24948E-04
 -1        49 3.28197E-05-7.22344E-04 3.41714E-04
 -1        50-2.84201E-05-9.90125E-04 2.98369E-04
 -1        51-1.22822E-04-1.27325E-03 1.85136E-04
 -1        74-1.23760E-04-1.27369E-03-1.85189E-04
 -1        75-2.86988E-05-9.89946E-04-2.98384E-04
 -1        76 3.38271E-05-7.23369E-04-3.41709E-04
 -1        77-4.23835E-05-2.92992E-04-2.24950E-04
 -1        89 1.23979E-04-1.27351E-03-1.85135E-04
 -1        90 2.90184E-05-9.89885E-04-2.98358E-04
 -1        91-3.38307E-05-7.23380E-04-3.41848E-04
 -1        92 4.24120E-05-2.92998E-04-2.25037E-04
 -1        98 0.00000E+00 0.00000E+00 0.00000E+00
 -1        99 0.00000E+00 0.00000E+00 0.00000E+00
 -1       100 0.00000E+00 0.00000E+00 0.00000E+00
 -1       101 0.00000E+00 0.00000E+00 0.00000E+00
 -1       102 0.00000E+00 0.00000E+00 0.00000E+00
 -1       124-8.77421E-06-1.17108E-03 1.74394E-04
 -1       125 2.44542E-07-1.40137E-03 1.83000E-04
 -1       126 9.06804E-06-1.17112E-03 1.74545E-04
 -1       127 2.92151E-08-1.03049E-03 3.30280E-04
 -1       128 3.58054E-06-7.59487E-04 3.66902E-04
 -1       129 6.58016E-08-7.04977E-04 3.74110E-04
 -1       130-3.52736E-06-7.59495E-04 3.66924E-04
 -1       131-8.40881E-09-2.97328E-04 2.18562E-04
 -1       153-1.00919E-04-1.51323E-03 8.23423E-05
 -1       154-2.91336E-07-1.34529E-03-1.37893E-08
 -1       155 1.01617E-04-1.51972E-03-8.22006E-05
 -1       156-1.11521E-07-1.11416E-03 7.99759E-08
 -1       157 2.03740E-05-6.28892E-04 1.47299E-04
 -1       158-5.26553E-08-6.41477E-04 3.64671E-08
 -1       159-2.04412E-05-6.27914E-04-1.47273E-04
 -1       160 9.11756E-08-2.43813E-04 4.14001E-08
 -1       182-3.19647E-06-1.17093E-03-1.74425E-04
 -1       183 2.67158E-07-1.40161E-03-1.82907E-04
 -1       184 3.54363E-06-1.17093E-03-1.74612E-04
 -1       185 5.49753E-08-1.03106E-03-3.30255E-04
 -1       186 2.67628E-06-7.59538E-04-3.66921E-04
 -1       187 8.36880E-08-7.04131E-04-3.74178E-04
 -1       188-2.58561E-06-7.59529E-04-3.66937E-04
 -1       189 1.23254E-09-2.97292E-04-2.18620E-04
 -1       211-1.01334E-04-1.51955E-03-8.24139E-05
 -1       212 7.55946E-07-1.34524E-03 6.63044E-10
 -1       213 1.01178E-04-1.51331E-03 8.21541E-05
 -1       214 1.78545E-07-1.11413E-03-2.11842E-08
 -1       215 2.05284E-05-6.27918E-04-1.47324E-04
 -1       216 2.06223E-07-6.41455E-04-4.16996E-08
 -1       217-2.03076E-05-6.28846E-04 1.47254E-04
 -1       218-7.50132E-08-2.43804E-04 2.39977E-08
 -1       250 1.38788E-07-1.51677E-03 8.15357E-05
 -1       251 3.24094E-06-9.57333E-04 1.17639E-07
 -1       252-3.20719E-09-1.21984E-03-1.75652E-08
 -1       253-3.00675E-06-9.57361E-04-8.31583E-08
 -1       254 1.47911E-07-1.51084E-03-8.15199E-05
 -1       255 1.09132E-07-1.08895E-03-4.82224E-08
 -1       256 2.87750E-08-6.19501E-04 1.64142E-04
 -1       257-5.43600E-07-7.24191E-04-4.47155E-08
 -1       258-3.73154E-09-6.43247E-04 1.20481E-08
 -1       259 6.09605E-07-7.24201E-04 3.95712E-08
 -1       260 3.79212E-08-6.20442E-04-1.64134E-04
 -1       261 1.99803E-08-2.76190E-04-8.01364E-09
 -3
    1PSTEP                         4           4           1          
  100CL  104 2.00000E-02          81                     1    4           1
 -4  DISP        4    1
 -5  D1          1    2    1    0
 -5  D2          1    2    2    0
 -5  D3          1    2    3    0
 -5  ALL         1    2    0    0    1ALL
 -1         5 0.00000E+00 0.00000E+00 0.00000E+00
 -1         6 0.00000E+00 0.00000E+00 0.00000E+00
 -1         7 0.00000E+00 0.00000E+00 0.00000E+00
 -1         8 0.00000E+00 0.00000E+00 0.00000E+00
 -1        21 0.00000E+00 0.00000E+00 0.00000E+00
 -1        22 0.00000E+00 0.00000E+00 0.00000E+00
 -1        23 0.00000E+00 0.00000E+00 0.00000E+00
 -1        24 0.00000E+00 0.00000E+00 0.00000E+00
 -1        25 0.00000E+00 0.00000E+00 0.00000E+00
 -1        26 0.00000E+00 0.00000E+00 0.00000E+00
 -1        27 0.00000E+00 0.00000E+00 0.00000E+00
 -1        28 0.00000E+00 0.00000E+00 0.00000E+00
 -1        29 0.00000E+00 0.00000E+00 0.00000E+00
 -1        30 0.00000E+00 0.00000E+00 0.00000E+00
 -1        31 0.00000E+00 0.00000E+00 0.00000E+00
 -1        32 0.00000E+00 0.00000E+00 0.00000E+00
 -1        44-9.33064E-05 9.89403E-04-1.43881E-04
 -1        45-2.13761E-05 7.68524E-04-2.31810E-04
 -1        46 2.53573E-05 5.61732E-04-2.65650E-04
 -1        47-3.32599E-05 2.27427E-04-1.74730E-04
 -1        48 3.32526E-05 2.27428E-04-1.74717E-04
 -1        49-2.53514E-05 5.61744E-04-2.65638E-04
 -1        50 2.13189E-05 7.68538E-04-2.31812E-04
 -1        51 9.32724E-05 9.89481E-04-1.43902E-04
 -1        74 9.51955E-05 9.87441E-04 1.43872E-04
 -1        75 2.24954E-05 7.67395E-04 2.31828E-04
 -1        76-2.61714E-05 5.62537E-04 2.65656E-04
 -1        77 3.29176E-05 2.27769E-04 1.74724E-04
 -1        89-9.52681E-05 9.87406E-04 1.43888E-04
 -1        90-2.24905E-05 7.67400E-04 2.31818E-04
 -1        91 2.61700E-05 5.62556E-04 2.65667E-04
 -1        92-3.29113E-05 2.27774E-04 1.74726E-04
 -1        98 0.00000E+00 0.00000E+00 0.00000E+00
 -1        99 0.00000E+00 0.00000E+00 0.00000E+00
 -1       100 0.00000E+00 0.00000E+00 0.00000E+00
 -1       101 0.00000E+00 0.00000E+00 0.00000E+00
 -1       102 0.00000E+00 0.00000E+00 0.00000E+00
 -1       124 3.39391E-06 9.09353E-04-1.35585E-04
 -1       125-6.29607E-08 1.08805E-03-1.42225E-04
 -1       126-3.46614E-06 9.09338E-04-1.35602E-04
 -1       127-4.48980E-09 8.00504E-04-2.56410E-04
 -1       128-2.12818E-06 5.89882E-04-2.84989E-04
 -1       129-1.93643E-08 5.46866E-04-2.90400E-04
 -1       130 2.10966E-06 5.89871E-04-2.84988E-04
 -1       131-7.47569E-10 2.30888E-04-1.69737E-04
 -1       153 7.72137E-05 1.17841E-03-6.39212E-05
 -1       154 3.48765E-07 1.04274E-03 3.57719E-08
 -1       155-7.78908E-05 1.17914E-03 6.39273E-05
 -1       156-8.89416E-08 8.64930E-04-1.26235E-07
 -1       157-1.54196E-05 4.87793E-04-1.14366E-04
 -1       158 6.39168E-08 4.98145E-04-5.65715E-08
 -1       159 1.55702E-05 4.87776E-04 1.14376E-04
 -1       160 6.80184E-09 1.89496E-04-1.15803E-08
 -1       182 2.71011E-06 9.10079E-04 1.35587E-04
 -1       183 3.00934E-09 1.08724E-03 1.42195E-04
 -1       184-2.73374E-06 9.10071E-04 1.35575E-04
 -1       185-5.87537E-09 8.00581E-04 2.56692E-04
 -1       186-2.11378E-06 5.89703E-04 2.84973E-04
 -1       187 6.54206E-09 5.46792E-04 2.90490E-04
 -1       188 2.11728E-06 5.89711E-04 2.84983E-04
 -1       189 2.10270E-09 2.30898E-04 1.69755E-04
 -1       211 7.78647E-05 1.17911E-03 6.39457E-05
 -1       212-3.56644E-07 1.04273E-03-3.26805E-09
 -1       213-7.72228E-05 1.17846E-03-6.39049E-05
 -1       214 7.81398E-08 8.64950E-04-1.22561E-07
 -1       215-1.55780E-05 4.87790E-04 1.14377E-04
 -1       216-7.21452E-08 4.98150E-04-4.61817E-08
 -1       217 1.54156E-05 4.87799E-04-1.14364E-04
 -1       218-8.74773E-09 1.89502E-04-7.62343E-09
 -1       250-3.10921E-08 1.17437E-03-6.34739E-05
 -1       251-6.60218E-07 7.43472E-04 3.16862E-08
 -1       252 1.04778E-08 9.48198E-04 4.59946E-08
 -1       253 6.62232E-07 7.43480E-04 5.22412E-08
 -1       254 6.51091E-09 1.17310E-03 6.34189E-05
 -1       255-6.60491E-09 8.45694E-04-6.94036E-09
 -1       256-9.22371E-09 4.81625E-04-1.27499E-04
 -1       257 7.72869E-08 5.62198E-04 2.94892E-09
 -1       258-7.52704E-10 4.99388E-04-5.30350E-09
 -1       259-8.06828E-08 5.62196E-04-2.67208E-09
 -1       260 2.91170E-09 4.81788E-04 1.27501E-04
 -1       261-2.07557E-09 2.14298E-04-1.42444E-09
 -3
    1PSTEP                         5           5           1          
  100CL  105 2.50000E-02          81                     1    5           1
 -4  DISP        4    1
 -5  D1          1    2    1    0
 -5  D2          1    2    2    0
 -5  D3          1    2    3    0
 -5  ALL         1    2    0    0    1ALL
 -1         5 0.00000E+00 0.00000E+00 0.00000E+00
 -1         6 0.00000E+00 0.00000E+00 0.00000E+00
 -1         7 0.00000E+00 0.00000E+00 0.00000E+00
 -1         8 0.00000E+00 0.00000E+00 0.00000E+00
 -1        21 0.00000E+00 0.00000E+00 0.00000E+00
 -1        22 0.00000E+00 0.00000E+00 0.00000E+00
 -1        23 0.00000E+00 0.00000E+00 0.00000E+00
 -1        24 0.00000E+00 0.00000E+00 0.00000E+00
 -1        25 0.00000E+00 0.00000E+00 0.00000E+00
 -1        26 0.00000E+00 0.00000E+00 0.00000E+00
 -1        27 0.00000E+00 0.00000E+00 0.00000E+00
 -1        28 0.00000E+00 0.00000E+00 0.00000E+00
 -1        29 0.00000E+00 0.00000E+00 0.00000E+00
 -1        30 0.00000E+00 0.00000E+00 0.00000E+00
 -1        31 0.00000E+00 0.00000E+00 0.00000E+00
 -1        32 0.00000E+00 0.00000E+00 0.00000E+00
 -1        44 7.29665E-05-7.44388E-04 1.08355E-04
 -1        45 1.70305E-05-5.79240E-04 1.74650E-04
 -1        46-1.94704E-05-4.23490E-04 2.00038E-04
 -1        47 2.47970E-05-1.71810E-04 1.31810E-04
 -1        48-2.47960E-05-1.71810E-04 1.31791E-04
 -1        49 1.94528E-05-4.23482E-04 2.00012E-04
 -1        50-1.69719E-05-5.79266E-04 1.74689E-04
 -1        51-7.28981E-05-7.44504E-04 1.08390E-04
 -1        74-7.42902E-05-7.43221E-04-1.08367E-04
 -1        75-1.77260E-05-5.78427E-04-1.74678E-04
 -1        76 2.04306E-05-4.24546E-04-2.00027E-04
 -1        77-2.45309E-05-1.72075E-04-1.31795E-04
 -1        89 7.43360E-05-7.43155E-04-1.08362E-04
 -1        90 1.77743E-05-5.78414E-04-1.74651E-04
 -1        91-2.04598E-05-4.24565E-04-2.00053E-04
 -1        92 2.45276E-05-1.72080E-04-1.31815E-04
 -1        98 0.00000E+00 0.00000E+00 0.00000E+00
 -1        99 0.00000E+00 0.00000E+00 0.00000E+00
 -1       100 0.00000E+00 0.00000E+00 0.00000E+00
 -1       101 0.00000E+00 0.00000E+00 0.00000E+00
 -1       102 0.00000E+00 0.00000E+00 0.00000E+00
 -1       124-5.35402E-06-6.85994E-04 1.02091E-04
 -1       125 6.02929E-08-8.20363E-04 1.07197E-04
 -1       126 5.43073E-06-6.85976E-04 1.02110E-04
 -1       127 3.01419E-09-6.03626E-04 1.93290E-04
 -1       128 2.13468E-06-4.44738E-04 2.14810E-04
 -1       129 1.55761E-08-4.12765E-04 2.19044E-04
 -1       130-2.12275E-06-4.44734E-04 2.14813E-04
 -1       131-2.31349E-09-1.74148E-04 1.27963E-04
 -1       153-5.96147E-05-8.86357E-04 4.81594E-05
 -1       154-3.03923E-07-7.88352E-04-4.10398E-08
 -1       155 6.01127E-05-8.90238E-04-4.81573E-05
 -1       156 2.81182E-08-6.52129E-04 9.97158E-08
 -1       157 1.19673E-05-3.68605E-04 8.61693E-05
 -1       158-1.54327E-07-3.76099E-04 3.15602E-08
 -1       159-1.20994E-05-3.68072E-04-8.61870E-05
 -1       160 2.11363E-08-1.42882E-04 1.88535E-08
 -1       182-1.69598E-06-6.86399E-04-1.02081E-04
 -1       183 5.96243E-08-8.19589E-04-1.07115E-04
 -1       184 1.75930E-06-6.86411E-04-1.02127E-04
 -1       185-9.37167E-09-6.03815E-04-1.93389E-04
 -1       186 1.59082E-06-4.44603E-04-2.14804E-04
 -1       187 1.44108E-08-4.12328E-04-2.19117E-04
 -1       188-1.58572E-06-4.44603E-04-2.14806E-04
 -1       189-4.92944E-09-1.74176E-04-1.28012E-04
 -1       211-6.00975E-05-8.90188E-04-4.81988E-05
 -1       212 3.45933E-07-7.88374E-04 5.15160E-08
 -1       213 5.96398E-05-8.86453E-04 4.81200E-05
 -1       214-4.19947E-08-6.52136E-04 9.69049E-08
 -1       215 1.21026E-05-3.68089E-04-8.61843E-05
 -1       216 1.78558E-07-3.76104E-04 1.81762E-08
 -1       217-1.19578E-05-3.68599E-04 8.61737E-05
 -1       218-2.16936E-08-1.42884E-04 1.96329E-08
 -1       250 1.09426E-08-8.86896E-04 4.77784E-05
 -1       251 2.04699E-06-5.60676E-04 4.87907E-08
 -1       252-4.99700E-08-7.13349E-04 3.04128E-08
 -1       253-2.06755E-06-5.60663E-04-4.57752E-08
 -1       254 1.29501E-08-8.82550E-04-4.76863E-05
 -1       255 1.35143E-08-6.37825E-04-2.70997E-08
 -1       256 1.44748E-09-3.62864E-04 9.61472E-05
 -1       257-3.43780E-07-4.24185E-04-9.71712E-09
 -1       258-1.07513E-08-3.76574E-04 4.00093E-09
 -1       259 3.41751E-07-4.24183E-04 8.52924E-09
 -1       260 2.91961E-10-3.63542E-04-9.61423E-05
 -1       261 4.68978E-09-1.61805E-04-5.51636E-10
 -3
    1PSTEP                         6           6           1          
  100CL  106 3.00000E-02          81                     1    6           1
 -4  DISP        4    1
 -5  D1          1    2    1    0
 -5  D2          1    2    2    0
 -5  D3          1    2    3    0
 -5  ALL         1    2    0    0    1ALL
 -1         5 0.00000E+00 0.00000E+00 0.00000E+00
 -1         6 0.00000E+00 0.00000E+00 0.00000E+00
 -1         7 0.00000E+00 0.00000E+00 0.00000E+00
 -1         8 0.00000E+00 0.00000E+00 0.00000E+00
 -1        21 0.00000E+00 0.00000E+00 0.00000E+00
 -1        22 0.00000E+00 0.00000E+00 0.00000E+00
 -1        23 0.00000E+00 0.00000E+00 0.00000E+00
 -1        24 0.00000E+00 0.00000E+00 0.00000E+00
 -1        25 0.00000E+00 0.00000E+00 0.00000E+00
 -1        26 0.00000E+00 0.00000E+00 0.00000E+00
 -1        27 0.00000E+00 0.00000E+00 0.00000E+00
 -1        28 0.00000E+00 0.00000E+00 0.00000E+00
 -1        29 0.00000E+00 0.00000E+00 0.00000E+00
 -1        30 0.00000E+00 0.00000E+00 0.00000E+00
 -1        31 0.00000E+00 0.00000E+00 0.00000E+00
 -1        32 0.00000E+00 0.00000E+00 0.00000E+00
 -1        44-5.11837E-05 5.41182E-04-7.87632E-05
 -1        45-1.17903E-05 4.20321E-04-1.26881E-04
 -1        46 1.39907E-05 3.07697E-04-1.45384E-04
 -1        47-1.81569E-05 1.24565E-04-9.56320E-05