
 displacements (vx,vy,vz) for set NALL and time  0.5000000E-02

         5  0.000000E+00  0.000000E+00  0.000000E+00
         6  0.000000E+00  0.000000E+00  0.000000E+00
         7  0.000000E+00  0.000000E+00  0.000000E+00
         8  0.000000E+00  0.000000E+00  0.000000E+00
        21  0.000000E+00  0.000000E+00  0.000000E+00
        22  0.000000E+00  0.000000E+00  0.000000E+00
        23  0.000000E+00  0.000000E+00  0.000000E+00
        24  0.000000E+00  0.000000E+00  0.000000E+00
        25  0.000000E+00  0.000000E+00  0.000000E+00
        26  0.000000E+00  0.000000E+00  0.000000E+00
        27  0.000000E+00  0.000000E+00  0.000000E+00
        28  0.000000E+00  0.000000E+00  0.000000E+00
        29  0.000000E+00  0.000000E+00  0.000000E+00
        30  0.000000E+00  0.000000E+00  0.000000E+00
        31  0.000000E+00  0.000000E+00  0.000000E+00
        32  0.000000E+00  0.000000E+00  0.000000E+00
        44 -6.002120E-05 -3.465085E-03  4.484039E-04
        45  5.673889E-05 -2.562075E-03  7.853643E-04
        46 -4.776027E-05 -1.795654E-03  9.491523E-04
        47  1.309780E-04 -6.750147E-04  5.431760E-04
        48 -1.309842E-04 -6.750190E-04  5.431874E-04
        49  4.772960E-05 -1.795660E-03  9.491780E-04
        50 -5.679448E-05 -2.562077E-03  7.854093E-04
        51  5.988812E-05 -3.465100E-03  4.484807E-04
        74  3.183923E-04 -4.411585E-03 -4.945538E-04
        75  1.909271E-04 -2.971953E-03 -7.847998E-04
        76 -1.102798E-04 -1.597599E-03 -9.498493E-04
        77 -2.078172E-04 -5.267613E-04 -5.581673E-04
        89 -3.185232E-04 -4.411571E-03 -4.944799E-04
        90 -1.909827E-04 -2.971950E-03 -7.847554E-04
        91  1.102493E-04 -1.597593E-03 -9.498237E-04
        92  2.078110E-04 -5.267570E-04 -5.581560E-04
        98  0.000000E+00  0.000000E+00  0.000000E+00
        99  0.000000E+00  0.000000E+00  0.000000E+00
       100  0.000000E+00  0.000000E+00  0.000000E+00
       101  0.000000E+00  0.000000E+00  0.000000E+00
       102  0.000000E+00  0.000000E+00  0.000000E+00
       124  1.493591E-04 -2.966102E-03  4.296165E-04
       125 -5.022220E-08 -3.588956E-03  4.485758E-04
       126 -1.494728E-04 -2.966095E-03  4.295907E-04
       127 -3.275749E-08 -2.562432E-03  9.034452E-04
       128 -9.120062E-06 -1.952678E-03  9.480907E-04
       129 -9.631820E-09 -1.814426E-03  9.414605E-04
       130  9.095319E-06 -1.952675E-03  9.480750E-04
       131 -2.219025E-09 -7.364143E-04  5.563418E-04
       153  6.977267E-05 -3.635899E-03  1.911647E-04
       154 -1.204095E-04 -2.503412E-03 -2.099205E-05
       155 -6.509264E-05 -3.888818E-03 -2.379906E-04
       156 -1.202466E-04 -2.789149E-03 -6.461018E-05
       157 -2.056138E-05 -1.509023E-03  3.922824E-04
       158  8.840775E-05 -1.567052E-03 -2.942853E-05
       159  4.670554E-05 -1.475623E-03 -4.110555E-04
       160  3.980157E-05 -6.564948E-04  4.883540E-06
       182  1.145063E-04 -2.562763E-03 -4.711096E-04
       183 -4.964494E-08 -4.354709E-03 -4.764967E-04
       184 -1.146186E-04 -2.562758E-03 -4.710856E-04
       185 -3.289800E-08 -2.833012E-03 -8.738829E-04
       186 -4.405027E-05 -2.162157E-03 -9.826046E-04
       187 -9.598650E-09 -1.831746E-03 -9.636734E-04
       188  4.402568E-05 -2.162154E-03 -9.825890E-04
       189 -2.219312E-09 -7.199353E-04 -5.644696E-04
       211  6.495291E-05 -3.888811E-03 -2.379228E-04
       212  1.202683E-04 -2.503413E-03 -2.092102E-05
       213 -6.991320E-05 -3.635907E-03  1.912345E-04
       214  1.201904E-04 -2.789149E-03 -6.456536E-05
       215 -4.673783E-05 -1.475620E-03 -4.110287E-04
       216 -8.844179E-05 -1.567052E-03 -2.940267E-05
       217  2.052897E-05 -1.509026E-03  3.923091E-04
       218 -3.980979E-05 -6.564947E-04  4.893557E-06
       250 -5.122408E-08 -4.081102E-03  1.744268E-04
       251  3.032797E-05 -2.572070E-03 -1.053920E-05
       252 -5.175868E-08 -3.123154E-03 -1.593399E-05
       253 -3.044838E-05 -2.572070E-03 -1.055761E-05
       254 -5.089786E-08 -4.412445E-03 -2.541482E-04
       255 -3.451454E-08 -2.599268E-03 -3.200013E-05
       256 -1.013722E-08 -1.607342E-03  3.956275E-04
       257 -4.114612E-05 -1.749291E-03 -1.200542E-05
       258 -1.009113E-08 -1.790152E-03 -1.455488E-05
       259  4.111955E-05 -1.749290E-03 -1.202198E-05
       260 -1.014019E-08 -1.622435E-03 -4.182842E-04
       261 -3.379805E-09 -7.170310E-04 -1.982764E-06

 forces (fx,fy,fz) for set NALL and time  0.5000000E-02

         5  2.298366E+00 -4.175568E+00 -1.104171E+00
         6 -2.298275E+00 -4.175608E+00 -1.104102E+00
         7  3.463711E+00  1.082789E+00  1.268918E+00
         8 -3.463624E+00  1.082751E+00  1.268850E+00
        21 -2.787065E+00  5.574615E+00 -1.789616E+01
        22  1.121043E-05 -9.877767E+00 -6.622837E-01
        23  2.786936E+00  5.574489E+00 -1.789603E+01
        24 -4.631413E+00  1.710577E+01 -1.021854E+01
        25  8.570207E-01 -1.151176E+01 -4.597494E-01
        26  2.144740E+00  1.342129E+01  1.050463E+01
        27 -1.822549E+00 -4.435567E-01  1.759846E+01
        28  9.628856E-06 -1.604234E+00  1.780683E+00
        29  1.822424E+00 -4.436827E-01  1.759833E+01
        30 -2.144517E+00  1.342127E+01  1.050431E+01
        31 -8.568402E-01 -1.151175E+01 -4.599002E-01
        32  4.631636E+00  1.710578E+01 -1.021887E+01
        44  1.941899E+00  5.185760E+01  1.429720E+00
        45 -7.131305E-06 -6.080380E-01  1.525634E-01
        46  5.450891E-06  1.541473E+00 -4.634098E-01
        47 -1.911847E-06 -1.167011E+00  5.403038E-01
        48  2.089464E-06 -1.167010E+00  5.403044E-01
        49 -4.880348E-06  1.541474E+00 -4.634100E-01
        50  5.313672E-06 -6.080403E-01  1.525630E-01
        51 -1.942081E+00  5.185755E+01  1.429975E+00
        74 -7.405687E+00  1.758051E+01 -9.874479E-01
        75  6.456171E-07 -6.081234E-01 -1.525356E-01
        76 -1.637875E-06  1.541534E+00  4.634018E-01
        77  4.014527E-06 -1.167024E+00 -5.403001E-01
        89  7.405533E+00  1.758053E+01 -9.871710E-01
        90 -3.467963E-06 -6.081198E-01 -1.525355E-01
        91  2.119435E-06  1.541534E+00  4.634019E-01
        92 -3.430540E-06 -1.167026E+00 -5.403000E-01
        98 -1.346376E-04  3.796031E+01 -1.717244E+01
        99 -2.309011E-01 -7.603416E+00  6.532070E-01
       100 -3.380410E-06 -2.289296E+01 -3.808447E-01
       101  2.306995E-01 -7.603415E+00  6.533750E-01
       102 -1.347483E-04  3.526865E+01  1.649330E+01
       124  1.705538E+01  1.974719E+01 -6.072050E-01
       125 -6.920869E-05  1.113983E+02  2.958693E+00
       126 -1.705505E+01  1.974736E+01 -6.069796E-01
       127  4.398444E-07 -1.216077E+00  3.051177E-01
       128  4.557339E-06 -2.615777E+00  9.358650E-01
       129 -1.978008E-07  3.082946E+00 -9.268166E-01
       130 -5.016802E-06 -2.615776E+00  9.358641E-01
       131  5.295610E-07 -2.334021E+00  1.080606E+00
       153  1.153962E+01 -1.326343E+02 -2.293076E+00
       154 -2.890044E+00  9.852784E+01  4.266786E-01
       155  4.100308E+00 -1.082420E+02  1.409805E+00
       156 -1.171618E-05 -1.216153E+00 -2.478955E-05
       157 -7.607181E-06 -2.615785E+00  7.018891E-01
       158  5.803687E-06  3.083006E+00  1.159795E-05
       159 -1.389634E-07 -2.615848E+00 -7.018921E-01
       160 -1.208055E-06 -2.334038E+00 -3.363790E-06
       182  8.007582E+00  6.531788E+01  4.175520E-01
       183 -5.175917E-05  5.161467E+01 -1.388135E+00
       184 -8.007269E+00  6.531805E+01  4.172736E-01
       185  1.291353E-06 -6.742573E+00 -3.050653E-01
       186  2.521121E-06 -8.142179E+00 -9.358385E-01
       187 -4.799389E-07 -2.443243E+00  9.268048E-01
       188 -2.878677E-06 -8.142177E+00 -9.358381E-01
       189  4.008580E-07 -7.860373E+00 -1.080595E+00
       211 -4.100680E+00 -1.082420E+02  1.409925E+00
       212  2.889718E+00  9.852782E+01  4.272201E-01
       213 -1.153998E+01 -1.326343E+02 -2.292901E+00
       214  9.290971E-06 -1.216154E+00 -2.298063E-05
       215 -1.520312E-06 -2.615846E+00 -7.018923E-01
       216 -4.644112E-06  3.083005E+00  1.076122E-05
       217  6.236493E-06 -2.615787E+00  7.018893E-01
       218  5.972349E-07 -2.334038E+00 -4.638785E-06
       250  2.124415E-04 -2.936168E+02 -5.863197E+00
       251  5.233131E+00  8.824032E+01  5.429816E-01
       252 -8.773965E-05  2.055573E+02  1.304189E+00
       253 -5.232682E+00  8.824030E+01  5.437196E-01
       254  1.993801E-04 -2.682757E+02  1.557417E+00
       255  3.291454E-06 -2.432314E+00 -6.072733E-05
       256  8.448467E-07 -5.231571E+00  1.403768E+00
       257  7.240957E-06 -5.231633E+00 -2.667987E-05
       258 -6.528338E-07  6.166016E+00  2.392870E-05
       259 -6.920865E-06 -5.231632E+00 -2.695524E-05
       260  1.693374E-06 -5.231707E+00 -1.403780E+00
       261 -4.982037E-07 -4.668080E+00 -9.360837E-06

 displacements (vx,vy,vz) for set NALL and time  0.1000000E-01

         5  0.000000E+00  0.000000E+00  0.000000E+00
         6  0.000000E+00  0.000000E+00  0.000000E+00
         7  0.000000E+00  0.000000E+00  0.000000E+00
         8  0.000000E+00  0.000000E+00  0.000000E+00
        21  0.000000E+00  0.000000E+00  0.000000E+00
        22  0.000000E+00  0.000000E+00  0.000000E+00
        23  0.000000E+00  0.000000E+00  0.000000E+00
        24  0.000000E+00  0.000000E+00  0.000000E+00
        25  0.000000E+00  0.000000E+00  0.000000E+00
        26  0.000000E+00  0.000000E+00  0.000000E+00
        27  0.000000E+00  0.000000E+00  0.000000E+00
        28  0.000000E+00  0.000000E+00  0.000000E+00
        29  0.000000E+00  0.000000E+00  0.000000E+00
        30  0.000000E+00  0.000000E+00  0.000000E+00
        31  0.000000E+00  0.000000E+00  0.000000E+00
        32  0.000000E+00  0.000000E+00  0.000000E+00
        44 -1.454045E-04  1.613937E-03 -2.338637E-04
        45 -3.280057E-05  1.251508E-03 -3.772232E-04
        46  4.019017E-05  9.126309E-04 -4.325217E-04
        47 -5.473121E-05  3.689539E-04 -2.839045E-04
        48  5.473801E-05  3.689405E-04 -2.838775E-04
        49 -4.013787E-05  9.125879E-04 -4.324747E-04
        50  3.278201E-05  1.251458E-03 -3.772146E-04
        51  1.455399E-04  1.613726E-03 -2.338399E-04
        74  1.494080E-04  1.613680E-03  2.341742E-04
        75  3.459986E-05  1.250585E-03  3.771735E-04
        76 -4.106008E-05  9.132262E-04  4.324840E-04
        77  5.422372E-05  3.690612E-04  2.839773E-04
        89 -1.495455E-04  1.613544E-03  2.340857E-04
        90 -3.465770E-05  1.250560E-03  3.771150E-04
        91  4.101260E-05  9.132027E-04  4.325489E-04
        92 -5.423935E-05  3.690410E-04  2.839985E-04
        98  0.000000E+00  0.000000E+00  0.000000E+00
        99  0.000000E+00  0.000000E+00  0.000000E+00
       100  0.000000E+00  0.000000E+00  0.000000E+00
       101  0.000000E+00  0.000000E+00  0.000000E+00
       102  0.000000E+00  0.000000E+00  0.000000E+00
       124  2.311410E-06  1.477573E-03 -2.202681E-04
       125 -2.414072E-08  1.770142E-03 -2.313319E-04
       126 -2.273118E-06  1.477690E-03 -2.203997E-04
       127  4.001463E-08  1.301333E-03 -4.169128E-04
       128 -2.860684E-06  9.595963E-04 -4.634787E-04
       129 -1.044450E-08  8.891632E-04 -4.718892E-04
       130  2.877266E-06  9.596176E-04 -4.634810E-04
       131  9.215876E-09  3.754025E-04 -2.760372E-04
       153  1.217936E-04  1.916902E-03 -1.038391E-04
       154  1.651800E-06  1.688423E-03  1.309148E-07
       155 -1.238791E-04  1.916206E-03  1.039719E-04
       156  5.355330E-07  1.406002E-03  1.985839E-08
       157 -2.420879E-05  7.922017E-04 -1.860557E-04
       158 -5.292854E-07  8.097247E-04  2.420304E-08
       159  2.449982E-05  7.926628E-04  1.862041E-04
       160 -1.983014E-07  3.085702E-04 -4.661683E-08
       182  4.376486E-06  1.477421E-03  2.206284E-04
       183 -8.909488E-09  1.772194E-03  2.312995E-04
       184 -4.460925E-06  1.477321E-03  2.206010E-04
       185 -4.963930E-08  1.303020E-03  4.174567E-04
       186 -3.329804E-06  9.602762E-04  4.635880E-04
       187 -4.000975E-09  8.892546E-04  4.722493E-04
       188  3.302873E-06  9.602718E-04  4.636115E-04
       189 -9.060991E-09  3.752645E-04  2.761098E-04
       211  1.237224E-04  1.916079E-03  1.041056E-04
       212 -1.809174E-06  1.688275E-03  8.778469E-08
       213 -1.218130E-04  1.916724E-03 -1.037787E-04
       214 -5.365663E-07  1.405943E-03  2.968626E-08
       215 -2.453873E-05  7.926336E-04  1.861963E-04
       216  4.973790E-07  8.096986E-04  3.736140E-08
       217  2.422128E-05  7.921699E-04 -1.860484E-04
       218  1.982230E-07  3.085560E-04 -4.150204E-08
       250 -3.835407E-08  1.909634E-03 -1.031190E-04
       251 -1.554029E-07  1.210058E-03  6.715953E-08
       252 -3.452016E-08  1.542449E-03  1.701971E-07
       253  5.528701E-08  1.210135E-03  1.866591E-07
       254 -1.289645E-08  1.911655E-03  1.033623E-04
       255 -2.901343E-08  1.374034E-03  1.749671E-07
       256 -1.842875E-09  7.837679E-04 -2.071443E-04
       257  1.071613E-07  9.134984E-04  8.653393E-08
       258  4.555821E-09  8.131005E-04  7.365671E-08
       259 -1.202567E-07  9.135110E-04  5.754470E-08
       260 -2.445717E-09  7.835836E-04  2.072663E-04
       261 -8.686743E-10  3.485581E-04  1.032161E-08

 forces (fx,fy,fz) for set NALL and time  0.1000000E-01

         5 -1.654988E+00  3.831828E-01  9.227315E-01
         6  1.654798E+00  3.835153E-01  9.222120E-01
         7 -1.677428E+00  3.692058E-01 -9.235438E-01
         8  1.677615E+00  3.692338E-01 -9.229790E-01
        21  1.030610E+00 -1.645436E+00  8.955292E+00
        22  3.697715E-04  7.295896E-01  1.411756E+00
        23 -1.031006E+00 -1.645702E+00  8.955911E+00
        24  1.190203E+00 -5.901394E+00  4.721927E+00
        25 -2.147080E-02  2.468076E+00 -1.949346E-03
        26 -1.161002E+00 -5.896787E+00 -4.718857E+00
        27  1.044601E+00 -1.627630E+00 -8.958257E+00
        28 -1.956726E-07  7.193097E-01 -1.409029E+00
        29 -1.044521E+00 -1.627450E+00 -8.958126E+00
        30  1.161472E+00 -5.897033E+00 -4.720464E+00
        31  2.204932E-02  2.467859E+00 -1.639217E-03
        32 -1.190405E+00 -5.900745E+00  4.721483E+00
        44 -6.029249E+00 -1.511275E+01 -7.525657E-01
        45  6.107658E-06  5.208353E-01 -1.306833E-01
        46 -4.673501E-06 -1.320401E+00  3.969495E-01
        47  1.646881E-06  9.996432E-01 -4.628157E-01
        48 -1.799027E-06  9.996421E-01 -4.628162E-01
        49  4.184791E-06 -1.320402E+00  3.969497E-01
        50 -4.550712E-06  5.208373E-01 -1.306830E-01
        51  6.029856E+00 -1.511210E+01 -7.546907E-01
        74  6.180699E+00 -1.503744E+01  7.527835E-01
        75 -5.475787E-07  5.209086E-01  1.306595E-01
        76  1.404578E-06 -1.320454E+00 -3.969427E-01
        77 -3.448516E-06  9.996540E-01  4.628125E-01
        89 -6.181015E+00 -1.503750E+01  7.491893E-01
        90  2.965149E-06  5.209054E-01  1.306595E-01
        91 -1.817069E-06 -1.320453E+00 -3.969428E-01
        92  2.948281E-06  9.996559E-01  4.628125E-01
        98  8.663560E-05 -1.288635E+01  8.220763E+00
        99 -1.505129E-02  3.914258E+00 -7.973549E-04
       100 -1.238411E-04  5.323031E+00  1.704161E-03
       101  1.469040E-02  3.913677E+00 -1.376796E-03
       102 -4.492046E-04 -1.290581E+01 -8.221352E+00
       124 -6.416965E+00 -1.700770E+01  4.703158E-01
       125 -1.725438E-04 -3.096811E+01 -1.398589E+00
       126  6.417082E+00 -1.700707E+01  4.666123E-01
       127 -3.767739E-07  1.041671E+00 -2.613589E-01
       128 -3.909443E-06  2.240633E+00 -8.016472E-01
       129  1.694411E-07 -2.640803E+00  7.938964E-01
       130  4.303002E-06  2.240632E+00 -8.016464E-01
       131 -4.536151E-07  1.999285E+00 -9.256298E-01
       153  4.391831E+00  5.178219E+01  1.170252E+00
       154  1.713737E-01 -3.317384E+01 -2.799659E-05
       155 -4.616650E+00  5.176125E+01 -1.174162E+00
       156  1.002983E-05  1.041737E+00  2.122530E-05
       157  6.521860E-06  2.240640E+00 -6.012271E-01
       158 -4.970945E-06 -2.640853E+00 -9.928989E-06
       159  1.167737E-07  2.240694E+00  6.012297E-01
       160  1.038714E-06  1.999300E+00  2.881444E-06
       182 -6.498540E+00 -1.712050E+01 -4.641274E-01
       183  7.516631E-04 -3.095606E+01  1.389309E+00
       184  6.499054E+00 -1.712119E+01 -4.621735E-01
       185 -1.106159E-06  1.069527E+00  2.613140E-01
       186 -2.162724E-06  2.268408E+00  8.016245E-01
       187  4.111134E-07 -2.613210E+00 -7.938863E-01
       188  2.468995E-06  2.268406E+00  8.016241E-01
       189 -3.433691E-07  2.027017E+00  9.256210E-01
       211  4.616239E+00  5.176257E+01 -1.165917E+00
       212 -1.733614E-01 -3.317441E+01 -4.920435E-03
       213 -4.391983E+00  5.178030E+01  1.173778E+00
       214 -7.952452E-06  1.041737E+00  1.967582E-05
       215  1.304529E-06  2.240692E+00  6.012298E-01
       216  3.977684E-06 -2.640853E+00 -9.212263E-06
       217 -5.347760E-06  2.240641E+00 -6.012273E-01
       218 -5.154977E-07  1.999300E+00  3.973587E-06
       250 -1.113094E-03  1.048009E+02  2.307488E+00
       251  1.224994E-01 -4.727262E+01  2.894375E-04
       252 -1.723892E-03 -6.978839E+01 -2.993402E-03
       253 -1.201172E-01 -4.727005E+01  7.444520E-03
       254  1.453446E-03  1.049753E+02 -2.302703E+00
       255 -2.819424E-06  2.083480E+00  5.200265E-05
       256 -7.236921E-07  4.481281E+00 -1.202446E+00
       257 -6.205383E-06  4.481333E+00  2.284547E-05
       258  5.592203E-07 -5.281711E+00 -2.048558E-05
       259  5.931181E-06  4.481333E+00  2.308134E-05
       260 -1.450525E-06  4.481397E+00  1.202456E+00
       261  4.267515E-07  3.998604E+00  8.017811E-06

 displacements (vx,vy,vz) for set NALL and time  0.1500000E-01

         5  0.000000E+00  0.000000E+00  0.000000E+00
         6  0.000000E+00  0.000000E+00  0.000000E+00
         7  0.000000E+00  0.000000E+00  0.000000E+00
         8  0.000000E+00  0.000000E+00  0.000000E+00
        21  0.000000E+00  0.000000E+00  0.000000E+00
        22  0.000000E+00  0.000000E+00  0.000000E+00
        23  0.000000E+00  0.000000E+00  0.000000E+00
        24  0.000000E+00  0.000000E+00  0.000000E+00
        25  0.000000E+00  0.000000E+00  0.000000E+00
        26  0.000000E+00  0.000000E+00  0.000000E+00
        27  0.000000E+00  0.000000E+00  0.000000E+00
        28  0.000000E+00  0.000000E+00  0.000000E+00
        29  0.000000E+00  0.000000E+00  0.000000E+00
        30  0.000000E+00  0.000000E+00  0.000000E+00
        31  0.000000E+00  0.000000E+00  0.000000E+00
        32  0.000000E+00  0.000000E+00  0.000000E+00
        44  1.164810E-04 -1.279358E-03  1.855198E-04
        45  2.585877E-05 -9.924046E-04  2.990671E-04
        46 -3.184854E-05 -7.229905E-04  3.425669E-04
        47  4.334045E-05 -2.924449E-04  2.250663E-04
        48 -4.335935E-05 -2.924572E-04  2.251119E-04
        49  3.185620E-05 -7.229907E-04  3.426045E-04
        50 -2.612389E-05 -9.923058E-04  2.990755E-04
        51 -1.168965E-04 -1.278933E-03  1.855542E-04
        74 -1.203869E-04 -1.275263E-03 -1.855158E-04
        75 -2.826441E-05 -9.903055E-04 -2.990051E-04
        76  3.288952E-05 -7.239118E-04 -3.426304E-04
        77 -4.275251E-05 -2.930610E-04 -2.251387E-04
        89  1.201711E-04 -1.275540E-03 -1.855168E-04
        90  2.804132E-05 -9.903260E-04 -2.990039E-04
        91 -3.282235E-05 -7.238753E-04 -3.425710E-04
        92  4.275635E-05 -2.930253E-04 -2.250796E-04
        98  0.000000E+00  0.000000E+00  0.000000E+00
        99  0.000000E+00  0.000000E+00  0.000000E+00
       100  0.000000E+00  0.000000E+00  0.000000E+00
       101  0.000000E+00  0.000000E+00  0.000000E+00
       102  0.000000E+00  0.000000E+00  0.000000E+00
       124 -3.032344E-06 -1.171242E-03  1.748644E-04
       125 -2.962482E-07 -1.402905E-03  1.834112E-04
       126  2.593384E-06 -1.171318E-03  1.748619E-04
       127 -6.800638E-08 -1.031319E-03  3.303123E-04
       128  2.331569E-06 -7.604482E-04  3.674148E-04
       129 -6.733632E-08 -7.049043E-04  3.742283E-04
       130 -2.410953E-06 -7.604768E-04  3.674010E-04
       131  1.550806E-09 -2.976068E-04  2.188242E-04
       153 -9.800063E-05 -1.520492E-03  8.234043E-05
       154 -8.299442E-07 -1.342967E-03 -1.748550E-08
       155  9.914296E-05 -1.517461E-03 -8.250669E-05
       156  8.216156E-08 -1.115122E-03  1.900260E-07
       157  1.954646E-05 -6.279101E-04  1.474967E-04
       158  6.676753E-09 -6.414852E-04  4.832610E-08
       159 -1.988548E-05 -6.285733E-04 -1.475533E-04
       160 -2.304859E-08 -2.441432E-04 -4.182400E-09
       182 -5.473849E-06 -1.172599E-03 -1.749396E-04
       183 -2.501841E-07 -1.401838E-03 -1.833982E-04
       184  5.178275E-06 -1.172592E-03 -1.748169E-04
       185 -9.816069E-09 -1.031449E-03 -3.308918E-04
       186  2.987349E-06 -7.602161E-04 -3.673847E-04
       187 -5.636791E-08 -7.051727E-04 -3.743994E-04
       188 -3.026203E-06 -7.602269E-04 -3.673836E-04
       189  1.383125E-08 -2.975700E-04 -2.188244E-04
       211 -9.928709E-05 -1.517652E-03 -8.241060E-05
       212  5.594499E-07 -1.342882E-03  2.481909E-09
       213  9.775515E-05 -1.520145E-03  8.245448E-05
       214 -1.191114E-07 -1.115086E-03  2.856614E-07
       215  1.983852E-05 -6.285224E-04 -1.475106E-04
       216 -1.273933E-07 -6.414620E-04  1.134501E-07
       217 -1.962335E-05 -6.279198E-04  1.475325E-04
       218  1.278930E-08 -2.441326E-04  1.074083E-09
       250 -1.058165E-07 -1.514245E-03  8.192661E-05
       251 -7.506210E-07 -9.582319E-04 -1.010639E-07
       252  1.236330E-07 -1.223445E-03 -7.009295E-09
       253  7.057478E-07 -9.582735E-04 -2.940126E-08
       254 -8.561660E-08 -1.515957E-03 -8.175711E-05
       255 -7.132832E-08 -1.089931E-03  5.319984E-09
       256 -2.315359E-08 -6.208651E-04  1.642563E-04
       257  1.820593E-07 -7.244165E-04  2.010644E-08
       258  1.358208E-08 -6.437271E-04 -9.737318E-09
       259 -2.158444E-07 -7.244282E-04 -3.267377E-08
       260 -1.677637E-08 -6.205044E-04 -1.642840E-04
       261 -2.120957E-08 -2.760864E-04  7.114192E-09

 forces (fx,fy,fz) for set NALL and time  0.1500000E-01

         5  1.312659E+00 -2.848149E-01 -7.341105E-01
         6 -1.312619E+00 -2.850301E-01 -7.343493E-01
         7  1.320366E+00 -2.905914E-01  7.338268E-01
         8 -1.320382E+00 -2.907004E-01  7.344761E-01
        21 -8.074537E-01  1.288924E+00 -7.096630E+00
        22  1.077009E-03 -5.538069E-01 -1.123475E+00
        23  8.064398E-01  1.287804E+00 -7.096536E+00
        24 -9.322047E-01  4.650122E+00 -3.737707E+00
        25  1.512258E-02 -1.909755E+00  2.399499E-03
        26  9.226731E-01  4.651857E+00  3.736544E+00
        27 -8.154514E-01  1.297802E+00  7.099664E+00
        28  1.284651E-03 -5.830650E-01  1.118042E+00
        29  8.140532E-01  1.296689E+00  7.098701E+00
        30 -9.227305E-01  4.653188E+00  3.735677E+00
        31 -1.438975E-02 -1.909756E+00  2.266315E-03
        32  9.326075E-01  4.648564E+00 -3.738888E+00
        44  4.799145E+00  1.185117E+01  5.952322E-01
        45 -4.852762E-06 -4.142314E-01  1.039353E-01
        46  3.723106E-06  1.050144E+00 -3.157028E-01
        47 -1.326536E-06 -7.950387E-01  3.680877E-01
        48  1.447545E-06 -7.950378E-01  3.680881E-01
        49 -3.334441E-06  1.050145E+00 -3.157029E-01
        50  3.614508E-06 -4.142330E-01  1.039350E-01
        51 -4.800497E+00  1.184929E+01  5.951807E-01
        74 -4.860531E+00  1.189744E+01 -5.931923E-01
        75  4.243567E-07 -4.142896E-01 -1.039163E-01
        76 -1.119401E-06  1.050186E+00  3.156973E-01
        77  2.760132E-06 -7.950473E-01 -3.680852E-01
        89  4.859164E+00  1.189906E+01 -5.956497E-01
        90 -2.347096E-06 -4.142871E-01 -1.039163E-01
        91  1.447457E-06  1.050186E+00  3.156974E-01
        92 -2.362283E-06 -7.950488E-01 -3.680852E-01
        98 -1.905738E-04  1.019735E+01 -6.519925E+00
        99  1.853205E-02 -3.125210E+00 -1.492877E-03
       100 -1.879246E-03 -4.192801E+00  5.882011E-04
       101 -1.730391E-02 -3.124841E+00 -1.273305E-03
       102 -3.492832E-05  1.023732E+01  6.522339E+00
       124  5.021945E+00  1.357920E+01 -3.673682E-01
       125 -4.222451E-03  2.440624E+01  1.101810E+00
       126 -5.018475E+00  1.358299E+01 -3.660205E-01
       127  2.996790E-07 -8.284632E-01  2.078644E-01
       128  3.118264E-06 -1.782026E+00  6.375679E-01
       129 -1.347778E-07  2.100289E+00 -6.314035E-01
       130 -3.431248E-06 -1.782025E+00  6.375673E-01
       131  3.607741E-07 -1.590077E+00  7.361742E-01
       153 -3.567334E+00 -4.088108E+01 -9.277566E-01
       154 -1.338286E-01  2.602562E+01  2.212476E-03
       155  3.660249E+00 -4.088844E+01  9.244243E-01
       156 -7.968521E-06 -8.285152E-01 -1.686830E-05
       157 -5.195802E-06 -1.782031E+00  4.781694E-01
       158  3.952962E-06  2.100329E+00  7.888849E-06
       159 -8.883307E-08 -1.782073E+00 -4.781714E-01
       160 -8.315779E-07 -1.590088E+00 -2.291779E-06
       182  5.066851E+00  1.349103E+01  3.627034E-01
       183 -4.063418E-03  2.467688E+01 -1.101918E+00
       184 -5.063159E+00  1.349461E+01  3.672896E-01
       185  8.797619E-07 -8.300441E-01 -2.078286E-01
       186  1.725517E-06 -1.783542E+00 -6.375498E-01
       187 -3.269747E-07  2.098917E+00  6.313955E-01
       188 -1.969094E-06 -1.783541E+00 -6.375496E-01
       189  2.730891E-07 -1.591559E+00 -7.361671E-01
       211 -3.660894E+00 -4.090003E+01  9.274807E-01
       212  1.362817E-01  2.602566E+01  9.632584E-04
       213  3.566793E+00 -4.086914E+01 -9.255947E-01
       214  6.316362E-06 -8.285157E-01 -1.563598E-05
       215 -1.041552E-06 -1.782072E+00 -4.781715E-01
       216 -3.163023E-06  2.100329E+00  7.318831E-06
       217  4.262034E-06 -1.782032E+00  4.781695E-01
       218  4.154563E-07 -1.590088E+00 -3.160389E-06
       250 -2.404902E-04 -8.296665E+01 -1.820641E+00
       251 -1.662536E-01  3.763460E+01 -8.512262E-03
       252  8.464282E-03  5.518210E+01  1.190712E-03
       253  1.603223E-01  3.763428E+01 -4.813035E-03
       254  1.091649E-04 -8.331774E+01  1.832845E+00
       255  2.242379E-06 -1.657036E+00 -4.133725E-05
       256  5.755897E-07 -3.564062E+00  9.563318E-01
       257  4.939352E-06 -3.564104E+00 -1.815818E-05
       258 -4.447843E-07  4.200662E+00  1.627670E-05
       259 -4.721244E-06 -3.564104E+00 -1.834576E-05
       260  1.153644E-06 -3.564154E+00 -9.563400E-01
       261 -3.394008E-07 -3.180180E+00 -6.375995E-06

 displacements (vx,vy,vz) for set NALL and time  0.2000000E-01

         5  0.000000E+00  0.000000E+00  0.000000E+00
         6  0.000000E+00  0.000000E+00  0.000000E+00
         7  0.000000E+00  0.000000E+00  0.000000E+00
         8  0.000000E+00  0.000000E+00  0.000000E+00
        21  0.000000E+00  0.000000E+00  0.000000E+00
        22  0.000000E+00  0.000000E+00  0.000000E+00
        23  0.000000E+00  0.000000E+00  0.000000E+00
        24  0.000000E+00  0.000000E+00  0.000000E+00
        25  0.000000E+00  0.000000E+00  0.000000E+00
        26  0.000000E+00  0.000000E+00  0.000000E+00
        27  0.000000E+00  0.000000E+00  0.000000E+00
        28  0.000000E+00  0.000000E+00  0.000000E+00
        29  0.000000E+00  0.000000E+00  0.000000E+00
        30  0.000000E+00  0.000000E+00  0.000000E+00
        31  0.000000E+00  0.000000E+00  0.000000E+00
        32  0.000000E+00  0.000000E+00  0.000000E+00
        44 -8.862487E-05  9.915758E-04 -1.437838E-04
        45 -1.983274E-05  7.687719E-04 -2.315703E-04
        46  2.460245E-05  5.612673E-04 -2.657599E-04
        47 -3.369399E-05  2.268893E-04 -1.744817E-04
        48  3.369949E-05  2.268938E-04 -1.744923E-04
        49 -2.458504E-05  5.612372E-04 -2.657695E-04
        50  1.987754E-05  7.687902E-04 -2.315926E-04
        51  8.874897E-05  9.914116E-04 -1.437670E-04
        74  9.120051E-05  9.898821E-04  1.437706E-04
        75  2.127210E-05  7.676381E-04  2.314819E-04
        76 -2.536673E-05  5.618608E-04  2.657226E-04
        77  3.328763E-05  2.272016E-04  1.744976E-04
        89 -9.111361E-05  9.898602E-04  1.436808E-04
        90 -2.125702E-05  7.676586E-04  2.314382E-04
        91  2.538336E-05  5.618402E-04  2.657448E-04
        92 -3.328782E-05  2.271952E-04  1.745098E-04
        98  0.000000E+00  0.000000E+00  0.000000E+00
        99  0.000000E+00  0.000000E+00  0.000000E+00
       100  0.000000E+00  0.000000E+00  0.000000E+00
       101  0.000000E+00  0.000000E+00  0.000000E+00
       102  0.000000E+00  0.000000E+00  0.000000E+00
       124  8.350706E-07  9.077339E-04 -1.352399E-04
       125  5.752817E-08  1.087422E-03 -1.420190E-04
       126 -7.255577E-07  9.078063E-04 -1.352575E-04
       127  2.318599E-08  7.997227E-04 -2.560786E-04
       128 -1.633635E-06  5.899032E-04 -2.847430E-04
       129  7.880056E-09  5.464380E-04 -2.898025E-04
       130  1.652071E-06  5.899208E-04 -2.847366E-04
       131  2.142371E-09  2.308957E-04 -1.696763E-04
       153  7.425192E-05  1.177428E-03 -6.378350E-05
       154  7.622766E-07  1.035702E-03 -9.231969E-09
       155 -7.539334E-05  1.176777E-03  6.366080E-05
       156  1.522282E-07  8.639172E-04 -9.846368E-08
       157 -1.463208E-05  4.869755E-04 -1.143186E-04
       158 -1.257355E-07  4.976923E-04 -3.181613E-08
       159  1.487858E-05  4.872146E-04  1.143694E-04
       160 -4.464351E-08  1.898986E-04 -1.277595E-08
       182  1.649321E-06  9.082390E-04  1.352842E-04
       183  2.090725E-08  1.087288E-03  1.418747E-04
       184 -1.593395E-06  9.082110E-04  1.353134E-04
       185  1.909370E-08  8.001612E-04  2.563198E-04
       186 -1.912722E-06  5.898211E-04  2.847070E-04
       187  3.058732E-09  5.462392E-04  2.899421E-04
       188  1.925278E-06  5.898155E-04  2.847020E-04
       189  3.848087E-10  2.307872E-04  1.697032E-04
       211  7.541878E-05  1.176793E-03  6.371364E-05
       212 -7.586330E-07  1.035731E-03 -5.448016E-08
       213 -7.418916E-05  1.177356E-03 -6.383276E-05
       214 -1.101122E-07  8.638779E-04 -1.215710E-07
       215 -1.486240E-05  4.872097E-04  1.143456E-04
       216  1.337962E-07  4.977099E-04 -4.694727E-08
       217  1.464640E-05  4.869720E-04 -1.143268E-04
       218  5.089118E-08  1.898934E-04 -2.060740E-08
       250  3.194985E-08  1.172734E-03 -6.336987E-05
       251 -1.225399E-07  7.435122E-04 -3.900159E-08