    1C
    1UUSER                                                              
    1UDATE              15.july.2018                                    
    1UTIME              19:46:05                                        
    1UHOST                                                              
    1UPGM               CalculiX                                        
    1UVERSION           Version 2.13                             
    1UCOMPILETIME       jue jun 14 00:40:39 CEST 2018                    
    1UDIR                                                               
    1UDBN                                                               
    1UMAT    1EL                                                        
    2C                            81                                     1
 -1         5 0.00000E+00 0.00000E+00 8.00000E+00
 -1         6 1.00000E+00 0.00000E+00 8.00000E+00
 -1         7 1.00000E+00 1.00000E+00 8.00000E+00
 -1         8 0.00000E+00 1.00000E+00 8.00000E+00
 -1        21 2.50000E-01 0.00000E+00 8.00000E+00
 -1        22 5.00000E-01 0.00000E+00 8.00000E+00
 -1        23 7.50000E-01 0.00000E+00 8.00000E+00
 -1        24 1.00000E+00 2.50000E-01 8.00000E+00
 -1        25 1.00000E+00 5.00000E-01 8.00000E+00
 -1        26 1.00000E+00 7.50000E-01 8.00000E+00
 -1        27 7.50000E-01 1.00000E+00 8.00000E+00
 -1        28 5.00000E-01 1.00000E+00 8.00000E+00
 -1        29 2.50000E-01 1.00000E+00 8.00000E+00
 -1        30 0.00000E+00 7.50000E-01 8.00000E+00
 -1        31 0.00000E+00 5.00000E-01 8.00000E+00
 -1        32 0.00000E+00 2.50000E-01 8.00000E+00
 -1        44 1.00000E+00 0.00000E+00 6.00000E+00
 -1        45 1.00000E+00 0.00000E+00 6.50000E+00
 -1        46 1.00000E+00 0.00000E+00 7.00000E+00
 -1        47 1.00000E+00 0.00000E+00 7.50000E+00
 -1        48 0.00000E+00 0.00000E+00 7.50000E+00
 -1        49 0.00000E+00 0.00000E+00 7.00000E+00
 -1        50 0.00000E+00 0.00000E+00 6.50000E+00
 -1        51 0.00000E+00 0.00000E+00 6.00000E+00
 -1        74 1.00000E+00 1.00000E+00 6.00000E+00
 -1        75 1.00000E+00 1.00000E+00 6.50000E+00
 -1        76 1.00000E+00 1.00000E+00 7.00000E+00
 -1        77 1.00000E+00 1.00000E+00 7.50000E+00
 -1        89 0.00000E+00 1.00000E+00 6.00000E+00
 -1        90 0.00000E+00 1.00000E+00 6.50000E+00
 -1        91 0.00000E+00 1.00000E+00 7.00000E+00
 -1        92 0.00000E+00 1.00000E+00 7.50000E+00
 -1        98 5.00000E-01 2.50000E-01 8.00000E+00
 -1        99 2.50000E-01 5.00000E-01 8.00000E+00
 -1       100 5.00000E-01 5.00000E-01 8.00000E+00
 -1       101 7.50000E-01 5.00000E-01 8.00000E+00
 -1       102 5.00000E-01 7.50000E-01 8.00000E+00
 -1       124 2.50000E-01 0.00000E+00 6.00000E+00
 -1       125 5.00000E-01 0.00000E+00 6.00000E+00
 -1       126 7.50000E-01 0.00000E+00 6.00000E+00
 -1       127 5.00000E-01 0.00000E+00 6.50000E+00
 -1       128 2.50000E-01 0.00000E+00 7.00000E+00
 -1       129 5.00000E-01 0.00000E+00 7.00000E+00
 -1       130 7.50000E-01 0.00000E+00 7.00000E+00
 -1       131 5.00000E-01 0.00000E+00 7.50000E+00
 -1       153 1.00000E+00 2.50000E-01 6.00000E+00
 -1       154 1.00000E+00 5.00000E-01 6.00000E+00
 -1       155 1.00000E+00 7.50000E-01 6.00000E+00
 -1       156 1.00000E+00 5.00000E-01 6.50000E+00
 -1       157 1.00000E+00 2.50000E-01 7.00000E+00
 -1       158 1.00000E+00 5.00000E-01 7.00000E+00
 -1       159 1.00000E+00 7.50000E-01 7.00000E+00
 -1       160 1.00000E+00 5.00000E-01 7.50000E+00
 -1       182 7.50000E-01 1.00000E+00 6.00000E+00
 -1       183 5.00000E-01 1.00000E+00 6.00000E+00
 -1       184 2.50000E-01 1.00000E+00 6.00000E+00
 -1       185 5.00000E-01 1.00000E+00 6.50000E+00
 -1       186 7.50000E-01 1.00000E+00 7.00000E+00
 -1       187 5.00000E-01 1.00000E+00 7.00000E+00
 -1       188 2.50000E-01 1.00000E+00 7.00000E+00
 -1       189 5.00000E-01 1.00000E+00 7.50000E+00
 -1       211 0.00000E+00 7.50000E-01 6.00000E+00
 -1       212 0.00000E+00 5.00000E-01 6.00000E+00
 -1       213 0.00000E+00 2.50000E-01 6.00000E+00
 -1       214 0.00000E+00 5.00000E-01 6.50000E+00
 -1       215 0.00000E+00 7.50000E-01 7.00000E+00
 -1       216 0.00000E+00 5.00000E-01 7.00000E+00
 -1       217 0.00000E+00 2.50000E-01 7.00000E+00
 -1       218 0.00000E+00 5.00000E-01 7.50000E+00
 -1       250 5.00000E-01 2.50000E-01 6.00000E+00
 -1       251 2.50000E-01 5.00000E-01 6.00000E+00
 -1       252 5.00000E-01 5.00000E-01 6.00000E+00
 -1       253 7.50000E-01 5.00000E-01 6.00000E+00
 -1       254 5.00000E-01 7.50000E-01 6.00000E+00
 -1       255 5.00000E-01 5.00000E-01 6.50000E+00
 -1       256 5.00000E-01 2.50000E-01 7.00000E+00
 -1       257 2.50000E-01 5.00000E-01 7.00000E+00
 -1       258 5.00000E-01 5.00000E-01 7.00000E+00
 -1       259 7.50000E-01 5.00000E-01 7.00000E+00
 -1       260 5.00000E-01 7.50000E-01 7.00000E+00
 -1       261 5.00000E-01 5.00000E-01 7.50000E+00
 -3
    3C                             8                                     1
 -1        25    4    0    1
 -2        51       125       252       212        49       129       258       216       124       250
 -2       251       213        50       127       255       214       128       256       257       217
 -1        26    4    0    1
 -2       125        44       154       252       129        46       158       258       126       153
 -2       253       250       127        45       156       255       130       157       259       256
 -1        27    4    0    1
 -2       212       252       183        89       216       258       187        91       251       254
 -2       184       211       214       255       185        90       257       260       188       215
 -1        28    4    0    1
 -2       252       154        74       183       258       158        76       187       253       155
 -2       182       254       255       156        75       185       259       159       186       260
 -1        29    4    0    1
 -2        49       129       258       216         5        22       100        31       128       256
 -2       257       217        48       131       261       218        21        98        99        32
 -1        30    4    0    1
 -2       129        46       158       258        22         6        25       100       130       157
 -2       259       256       131        47       160       261        23        24       101        98
 -1        31    4    0    1
 -2       216       258       187        91        31       100        28         8       257       260
 -2       188       215       218       261       189        92        99       102        29        30
 -1        32    4    0    1
 -2       258       158        76       187       100        25         7        28       259       159
 -2       186       260       261       160        77       189       101        26        27       102
 -3
    1PSTEP                         1           1           1          
  100CL  101 5.00000E-03          81                     1    1           1
 -4  DISP        4    1
 -5  D1          1    2    1    0
 -5  D2          1    2    2    0
 -5  D3          1    2    3    0
 -5  ALL         1    2    0    0    1ALL
 -1         5 0.00000E+00 0.00000E+00 0.00000E+00
 -1         6 0.00000E+00 0.00000E+00 0.00000E+00
 -1         7 0.00000E+00 0.00000E+00 0.00000E+00
 -1         8 0.00000E+00 0.00000E+00 0.00000E+00
 -1        21 0.00000E+00 0.00000E+00 0.00000E+00
 -1        22 0.00000E+00 0.00000E+00 0.00000E+00
 -1        23 0.00000E+00 0.00000E+00 0.00000E+00
 -1        24 0.00000E+00 0.00000E+00 0.00000E+00
 -1        25 0.00000E+00 0.00000E+00 0.00000E+00
 -1        26 0.00000E+00 0.00000E+00 0.00000E+00
 -1        27 0.00000E+00 0.00000E+00 0.00000E+00
 -1        28 0.00000E+00 0.00000E+00 0.00000E+00
 -1        29 0.00000E+00 0.00000E+00 0.00000E+00
 -1        30 0.00000E+00 0.00000E+00 0.00000E+00
 -1        31 0.00000E+00 0.00000E+00 0.00000E+00
 -1        32 0.00000E+00 0.00000E+00 0.00000E+00
 -1        44-7.09179E-05-3.46755E-03 4.47630E-04
 -1        45 5.47778E-05-2.55860E-03 7.85155E-04
 -1        46-4.49165E-05-1.79489E-03 9.49732E-04
 -1        47 1.31399E-04-6.74128E-04 5.42120E-04
 -1        48-1.31433E-04-6.74147E-04 5.42175E-04
 -1        49 4.48008E-05-1.79490E-03 9.49836E-04
 -1        50-5.50336E-05-2.55862E-03 7.85316E-04
 -1        51 7.04915E-05-3.46756E-03 4.47830E-04
 -1        74 3.52873E-04-4.41769E-03-4.93986E-04
 -1        75 2.02911E-04-2.97400E-03-7.85728E-04
 -1        76-1.16207E-04-1.59679E-03-9.51223E-04
 -1        77-2.11353E-04-5.24839E-04-5.57066E-04
 -1        89-3.53299E-04-4.41767E-03-4.93795E-04
 -1        90-2.03164E-04-2.97399E-03-7.85577E-04
 -1        91 1.16088E-04-1.59678E-03-9.51112E-04
 -1        92 2.11320E-04-5.24822E-04-5.57012E-04
 -1        98 0.00000E+00 0.00000E+00 0.00000E+00
 -1        99 0.00000E+00 0.00000E+00 0.00000E+00
 -1       100 0.00000E+00 0.00000E+00 0.00000E+00
 -1       101 0.00000E+00 0.00000E+00 0.00000E+00
 -1       102 0.00000E+00 0.00000E+00 0.00000E+00
 -1       124 1.39838E-04-2.96340E-03 4.28468E-04
 -1       125-2.16119E-07-3.57984E-03 4.47726E-04
 -1       126-1.40263E-04-2.96339E-03 4.28374E-04
 -1       127-1.23171E-07-2.55817E-03 9.01869E-04
 -1       128-7.20777E-06-1.95263E-03 9.47231E-04
 -1       129-5.72026E-08-1.81524E-03 9.39688E-04
 -1       130 7.09446E-06-1.95263E-03 9.47178E-04
 -1       131-1.16690E-08-7.36709E-04 5.56255E-04
 -1       153 7.89493E-05-3.61797E-03 1.90384E-04
 -1       154-1.10726E-04-2.48215E-03-2.08963E-05
 -1       155-8.54170E-05-3.89177E-03-2.37453E-04
 -1       156-1.17031E-04-2.78676E-03-6.52908E-05
 -1       157-2.31717E-05-1.50908E-03 3.92494E-04
 -1       158 8.49826E-05-1.56414E-03-2.95717E-05
 -1       159 5.16858E-05-1.47125E-03-4.11150E-04
 -1       160 3.88904E-05-6.57470E-04 4.78779E-06
 -1       182 1.34474E-04-2.56132E-03-4.69846E-04
 -1       183-2.02621E-07-4.33611E-03-4.75925E-04
 -1       184-1.34887E-04-2.56131E-03-4.69746E-04
 -1       185-1.24448E-07-2.82168E-03-8.70586E-04
 -1       186-4.76159E-05-2.16156E-03-9.81846E-04
 -1       187-5.45475E-08-1.83515E-03-9.60869E-04
 -1       188 4.75035E-05-2.16156E-03-9.81792E-04
 -1       189-1.20418E-08-7.22476E-04-5.64559E-04
 -1       211 8.49907E-05-3.89176E-03-2.37260E-04
 -1       212 1.10309E-04-2.48216E-03-2.07081E-05
 -1       213-7.93787E-05-3.61799E-03 1.90573E-04
 -1       214 1.16760E-04-2.78676E-03-6.51396E-05
 -1       215-5.18060E-05-1.47124E-03-4.11041E-04
 -1       216-8.51000E-05-1.56415E-03-2.94617E-05
 -1       217 2.30541E-05-1.50909E-03 3.92602E-04
 -1       218-3.89332E-05-6.57470E-04 4.84396E-06
 -1       250-2.26957E-07-4.08996E-03 1.74170E-04
 -1       251 3.73559E-05-2.56869E-03-1.04027E-05
 -1       252-2.32344E-07-3.12864E-03-1.59679E-05
 -1       253-3.77939E-05-2.56869E-03-1.05145E-05
 -1       254-2.18985E-07-4.39566E-03-2.54013E-04
 -1       255-1.23226E-07-2.59697E-03-3.17687E-05
 -1       256-6.18606E-08-1.60545E-03 3.94496E-04
 -1       257-4.22013E-05-1.74692E-03-1.19592E-05
 -1       258-6.48887E-08-1.79011E-03-1.45653E-05
 -1       259 4.20795E-05-1.74692E-03-1.20092E-05
 -1       260-6.06896E-08-1.62644E-03-4.17260E-04
 -1       261-1.45210E-08-7.15999E-04-1.83145E-06
 -3
    1PSTEP                         2           2           1          
  100CL  102 1.00000E-02          81                     1    2           1
 -4  DISP        4    1
 -5  D1          1    2    1    0
 -5  D2          1    2    2    0
 -5  D3          1    2    3    0
 -5  ALL         1    2    0    0    1ALL
 -1         5 0.00000E+00 0.00000E+00 0.00000E+00
 -1         6 0.00000E+00 0.00000E+00 0.00000E+00
 -1         7 0.00000E+00 0.00000E+00 0.00000E+00
 -1         8 0.00000E+00 0.00000E+00 0.00000E+00
 -1        21 0.00000E+00 0.00000E+00 0.00000E+00
 -1        22 0.00000E+00 0.00000E+00 0.00000E+00
 -1        23 0.00000E+00 0.00000E+00 0.00000E+00
 -1        24 0.00000E+00 0.00000E+00 0.00000E+00
 -1        25 0.00000E+00 0.00000E+00 0.00000E+00
 -1        26 0.00000E+00 0.00000E+00 0.00000E+00
 -1        27 0.00000E+00 0.00000E+00 0.00000E+00
 -1        28 0.00000E+00 0.00000E+00 0.00000E+00
 -1        29 0.00000E+00 0.00000E+00 0.00000E+00
 -1        30 0.00000E+00 0.00000E+00 0.00000E+00
 -1        31 0.00000E+00 0.00000E+00 0.00000E+00
 -1        32 0.00000E+00 0.00000E+00 0.00000E+00
 -1        44-1.42089E-04 1.62088E-03-2.33979E-04
 -1        45-3.02866E-05 1.25626E-03-3.77370E-04
 -1        46 3.85534E-05 9.09629E-04-4.32413E-04
 -1        47-5.55643E-05 3.67758E-04-2.83896E-04
 -1        48 5.55496E-05 3.67754E-04-2.83887E-04
 -1        49-3.86176E-05 9.09629E-04-4.32382E-04
 -1        50 3.02264E-05 1.25623E-03-3.77285E-04
 -1        51 1.41990E-04 1.62076E-03-2.33890E-04
 -1        74 1.55076E-04 1.61217E-03 2.34098E-04
 -1        75 3.71981E-05 1.25040E-03 3.77110E-04
 -1        76-4.22196E-05 9.12803E-04 4.32343E-04
 -1        77 5.35626E-05 3.69268E-04 2.83989E-04
 -1        89-1.55201E-04 1.61223E-03 2.34169E-04
 -1        90-3.72618E-05 1.25042E-03 3.77191E-04
 -1        91 4.21493E-05 9.12792E-04 4.32374E-04
 -1        92-5.35797E-05 3.69271E-04 2.83999E-04
 -1        98 0.00000E+00 0.00000E+00 0.00000E+00
 -1        99 0.00000E+00 0.00000E+00 0.00000E+00
 -1       100 0.00000E+00 0.00000E+00 0.00000E+00
 -1       101 0.00000E+00 0.00000E+00 0.00000E+00
 -1       102 0.00000E+00 0.00000E+00 0.00000E+00
 -1       124 2.71776E-06 1.47559E-03-2.20429E-04
 -1       125-2.97960E-08 1.77371E-03-2.31329E-04
 -1       126-2.81456E-06 1.47561E-03-2.20460E-04
 -1       127-4.81545E-08 1.30111E-03-4.16505E-04
 -1       128-2.65902E-06 9.60132E-04-4.63637E-04
 -1       129-1.16776E-08 8.89634E-04-4.71983E-04
 -1       130 2.62101E-06 9.60140E-04-4.63657E-04
 -1       131-7.62199E-09 3.75388E-04-2.76084E-04
 -1       153 1.21172E-04 1.91748E-03-1.03893E-04
 -1       154 3.64512E-06 1.69116E-03 1.04488E-07
 -1       155-1.26717E-04 1.91300E-03 1.04096E-04
 -1       156 4.28031E-07 1.40690E-03-5.75054E-07
 -1       157-2.43424E-05 7.91611E-04-1.86176E-04
 -1       158-7.15275E-07 8.09341E-04-1.78594E-07
 -1       159 2.53508E-05 7.93183E-04 1.86325E-04
 -1       160-2.26475E-07 3.08207E-04-8.01055E-08
 -1       182 8.78877E-06 1.47816E-03 2.20696E-04
 -1       183-3.46146E-08 1.77321E-03 2.31258E-04
 -1       184-8.90267E-06 1.47815E-03 2.20704E-04
 -1       185-5.58709E-08 1.30348E-03 4.18153E-04
 -1       186-4.25361E-06 9.60189E-04 4.63684E-04
 -1       187-1.12082E-08 8.89724E-04 4.72765E-04
 -1       188 4.21285E-06 9.60192E-04 4.63706E-04
 -1       189-8.87606E-09 3.75086E-04 2.76192E-04
 -1       211 1.26554E-04 1.91306E-03 1.04153E-04
 -1       212-3.78531E-06 1.69116E-03 2.35028E-07
 -1       213-1.21319E-04 1.91739E-03-1.03847E-04
 -1       214-5.53743E-07 1.40689E-03-5.20312E-07
 -1       215-2.53948E-05 7.93173E-04 1.86369E-04
 -1       216 6.88029E-07 8.09343E-04-1.43386E-07
 -1       217 2.43011E-05 7.91617E-04-1.86128E-04
 -1       218 2.08132E-07 3.08206E-04-5.41766E-08
 -1       250-8.38447E-08 1.91379E-03-1.03210E-04
 -1       251 1.88075E-07 1.21028E-03 2.59352E-07
 -1       252-1.46579E-07 1.54249E-03 4.97293E-08
 -1       253-3.93462E-07 1.21028E-03 1.53315E-07
 -1       254-8.45595E-08 1.91702E-03 1.03152E-04
 -1       255-4.04958E-08 1.37408E-03 1.90940E-07
 -1       256-2.57299E-08 7.83545E-04-2.07143E-04
 -1       257-1.15605E-07 9.13793E-04 8.05332E-08
 -1       258-3.70277E-08 8.13434E-04 7.82914E-08
 -1       259 6.20830E-08 9.13792E-04 7.30569E-08
 -1       260-2.59383E-08 7.82836E-04 2.07249E-04
 -1       261-1.69228E-09 3.48748E-04 1.04146E-08
 -3
    1PSTEP                         3           3           1          
  100CL  103 1.50000E-02          81                     1    3           1
 -4  DISP        4    1
 -5  D1          1    2    1    0
 -5  D2          1    2    2    0
 -5  D3          1    2    3    0
 -5  ALL         1    2    0    0    1ALL
 -1         5 0.00000E+00 0.00000E+00 0.00000E+00
 -1         6 0.00000E+00 0.00000E+00 0.00000E+00
 -1         7 0.00000E+00 0.00000E+00 0.00000E+00
 -1         8 0.00000E+00 0.00000E+00 0.00000E+00
 -1        21 0.00000E+00 0.00000E+00 0.00000E+00
 -1        22 0.00000E+00 0.00000E+00 0.00000E+00
 -1        23 0.00000E+00 0.00000E+00 0.00000E+00
 -1        24 0.00000E+00 0.00000E+00 0.00000E+00
 -1        25 0.00000E+00 0.00000E+00 0.00000E+00
 -1        26 0.00000E+00 0.00000E+00 0.00000E+00
 -1        27 0.00000E+00 0.00000E+00 0.00000E+00
 -1        28 0.00000E+00 0.00000E+00 0.00000E+00
 -1        29 0.00000E+00 0.00000E+00 0.00000E+00
 -1        30 0.00000E+00 0.00000E+00 0.00000E+00
 -1        31 0.00000E+00 0.00000E+00 0.00000E+00
 -1        32 0.00000E+00 0.00000E+00 0.00000E+00
 -1        44 1.20149E-04-1.27425E-03 1.85365E-04
 -1        45 2.74548E-05-9.89741E-04 2.98739E-04
 -1        46-3.28775E-05-7.23994E-04 3.42125E-04
 -1        47 4.27860E-05-2.93102E-04 2.25055E-04
 -1        48-4.27978E-05-2.93115E-04 2.25094E-04
 -1        49 3.28693E-05-7.24008E-04 3.42175E-04
 -1        50-2.76377E-05-9.89701E-04 2.98766E-04
 -1        51-1.20385E-04-1.27410E-03 1.85416E-04
 -1        74-1.22082E-04-1.27264E-03-1.85435E-04
 -1        75-2.85307E-05-9.88876E-04-2.98741E-04
 -1        76 3.32731E-05-7.24382E-04-3.42178E-04
 -1        77-4.25424E-05-2.93345E-04-2.25103E-04
 -1        89 1.21797E-04-1.27283E-03-1.85378E-04
 -1        90 2.83709E-05-9.88891E-04-2.98715E-04
 -1        91-3.32797E-05-7.24363E-04-3.42120E-04
 -1        92 4.25348E-05-2.93330E-04-2.25062E-04
 -1        98 0.00000E+00 0.00000E+00 0.00000E+00
 -1        99 0.00000E+00 0.00000E+00 0.00000E+00
 -1       100 0.00000E+00 0.00000E+00 0.00000E+00
 -1       101 0.00000E+00 0.00000E+00 0.00000E+00
 -1       102 0.00000E+00 0.00000E+00 0.00000E+00
 -1       124-3.52441E-06-1.17187E-03 1.74712E-04
 -1       125-1.78833E-07-1.40085E-03 1.83285E-04
 -1       126 3.26139E-06-1.17187E-03 1.74645E-04
 -1       127-4.34507E-08-1.03113E-03 3.30239E-04
 -1       128 2.56310E-06-7.59728E-04 3.67103E-04
 -1       129-4.71415E-08-7.04404E-04 3.74082E-04
 -1       130-2.62239E-06-7.59736E-04 3.67091E-04
 -1       131 6.49235E-10-2.97482E-04 2.18645E-04
 -1       153-9.96760E-05-1.51980E-03 8.23039E-05
 -1       154-4.70811E-07-1.34441E-03 4.54048E-10
 -1       155 1.00090E-04-1.51843E-03-8.24411E-05
 -1       156-4.50130E-08-1.11421E-03 4.54541E-08
 -1       157 1.98927E-05-6.28291E-04 1.47269E-04
 -1       158 3.17080E-08-6.41815E-04 2.61827E-09
 -1       159-2.00721E-05-6.28606E-04-1.47316E-04
 -1       160-1.27405E-09-2.44061E-04-2.81165E-09
 -1       182-4.82200E-06-1.17233E-03-1.74722E-04
 -1       183-1.74393E-07-1.40052E-03-1.83310E-04
 -1       184 4.54054E-06-1.17236E-03-1.74676E-04
 -1       185-4.43500E-08-1.03127E-03-3.30445E-04
 -1       186 2.86330E-06-7.59666E-04-3.67104E-04
 -1       187-3.66716E-08-7.04498E-04-3.74159E-04
 -1       188-2.91142E-06-7.59671E-04-3.67081E-04
 -1       189 2.20401E-09-2.97457E-04-2.18649E-04
 -1       211-1.00285E-04-1.51857E-03-8.23119E-05
 -1       212 2.75749E-07-1.34441E-03-1.43610E-09
 -1       213 9.95127E-05-1.51967E-03 8.23717E-05
 -1       214-3.24267E-08-1.11421E-03 1.15952E-07
 -1       215 2.00192E-05-6.28581E-04-1.47282E-04
 -1       216-1.10075E-07-6.41805E-04 5.96496E-08
 -1       217-1.99470E-05-6.28303E-04 1.47313E-04
 -1       218-1.33974E-08-2.44059E-04 1.33552E-08
 -1       250-9.61534E-08-1.51105E-03 8.17571E-05
 -1       251-3.74600E-07-9.57654E-04-2.14837E-08
 -1       252 1.12928E-08-1.22152E-03-1.43506E-08
 -1       253 2.71175E-07-9.57657E-04 1.46447E-08
 -1       254-9.20738E-08-1.51187E-03-8.17407E-05
 -1       255-5.95144E-08-1.08980E-03-1.18760E-08
 -1       256-2.52873E-08-6.20558E-04 1.64258E-04
 -1       257 5.45862E-08-7.24280E-04 1.07722E-08
 -1       258-7.65522E-09-6.42987E-04-1.57697E-09
 -1       259-9.44245E-08-7.24284E-04-2.63396E-08
 -1       260-2.03681E-08-6.20388E-04-1.64261E-04
 -1       261-1.32270E-08-2.75991E-04 2.94932E-09
 -3
    1PSTEP                         4           4           1          
  100CL  104 2.00000E-02          81                     1    4           1
 -4  DISP        4    1
 -5  D1          1    2    1    0
 -5  D2          1    2    2    0
 -5  D3          1    2    3    0
 -5  ALL         1    2    0    0    1ALL
 -1         5 0.00000E+00 0.00000E+00 0.00000E+00
 -1         6 0.00000E+00 0.00000E+00 0.00000E+00
 -1         7 0.00000E+00 0.00000E+00 0.00000E+00
 -1         8 0.00000E+00 0.00000E+00 0.00000E+00
 -1        21 0.00000E+00 0.00000E+00 0.00000E+00
 -1        22 0.00000E+00 0.00000E+00 0.00000E+00
 -1        23 0.00000E+00 0.00000E+00 0.00000E+00
 -1        24 0.00000E+00 0.00000E+00 0.00000E+00
 -1        25 0.00000E+00 0.00000E+00 0.00000E+00
 -1        26 0.00000E+00 0.00000E+00 0.00000E+00
 -1        27 0.00000E+00 0.00000E+00 0.00000E+00
 -1        28 0.00000E+00 0.00000E+00 0.00000E+00
 -1        29 0.00000E+00 0.00000E+00 0.00000E+00
 -1        30 0.00000E+00 0.00000E+00 0.00000E+00
 -1        31 0.00000E+00 0.00000E+00 0.00000E+00
 -1        32 0.00000E+00 0.00000E+00 0.00000E+00
 -1        44-9.47338E-05 9.88275E-04-1.43964E-04
 -1        45-2.20467E-05 7.67855E-04-2.32052E-04
 -1        46 2.57659E-05 5.62133E-04-2.65573E-04
 -1        47-3.30352E-05 2.27692E-04-1.74726E-04
 -1        48 3.30363E-05 2.27693E-04-1.74731E-04
 -1        49-2.57835E-05 5.62126E-04-2.65578E-04
 -1        50 2.20567E-05 7.67861E-04-2.32042E-04
 -1        51 9.46575E-05 9.88290E-04-1.43920E-04
 -1        74 9.32798E-05 9.90398E-04 1.43889E-04
 -1        75 2.11615E-05 7.68926E-04 2.31971E-04
 -1        76-2.54070E-05 5.61644E-04 2.65549E-04
 -1        77 3.32735E-05 2.27378E-04 1.74735E-04
 -1        89-9.33463E-05 9.90376E-04 1.43919E-04
 -1        90-2.11586E-05 7.68931E-04 2.31977E-04
 -1        91 2.53950E-05 5.61646E-04 2.65558E-04
 -1        92-3.32716E-05 2.27377E-04 1.74738E-04
 -1        98 0.00000E+00 0.00000E+00 0.00000E+00
 -1        99 0.00000E+00 0.00000E+00 0.00000E+00
 -1       100 0.00000E+00 0.00000E+00 0.00000E+00
 -1       101 0.00000E+00 0.00000E+00 0.00000E+00
 -1       102 0.00000E+00 0.00000E+00 0.00000E+00
 -1       124 4.10714E-06 9.10198E-04-1.35668E-04
 -1       125 3.77860E-09 1.08718E-03-1.42377E-04
 -1       126-4.13665E-06 9.10192E-04-1.35640E-04
 -1       127-1.14395E-08 8.00546E-04-2.56495E-04
 -1       128-2.33403E-06 5.89650E-04-2.84988E-04
 -1       129 3.81156E-09 5.46917E-04-2.90508E-04
 -1       130 2.32834E-06 5.89653E-04-2.84996E-04
 -1       131-1.19335E-09 2.30884E-04-1.69735E-04
 -1       153 7.79661E-05 1.17894E-03-6.39324E-05
 -1       154-1.79265E-08 1.04467E-03 7.87844E-09
 -1       155-7.76145E-05 1.18049E-03 6.39254E-05
 -1       156 1.45524E-07 8.64977E-04 1.01650E-07
 -1       157-1.56546E-05 4.88025E-04-1.14348E-04
 -1       158-3.10615E-08 4.98294E-04 4.35702E-08
 -1       159 1.55793E-05 4.87681E-04 1.14332E-04
 -1       160-4.83772E-08 1.89387E-04-2.72316E-09
 -1       182 2.83985E-06 9.09350E-04 1.35638E-04
 -1       183-3.77224E-09 1.08833E-03 1.42318E-04
 -1       184-2.87179E-06 9.09342E-04 1.35645E-04
 -1       185-4.35052E-09 8.00755E-04 2.56280E-04
 -1       186-2.02448E-06 5.89836E-04 2.84997E-04
 -1       187 1.66568E-09 5.46639E-04 2.90449E-04
 -1       188 2.01940E-06 5.89836E-04 2.85004E-04
 -1       189-5.69361E-10 2.30822E-04 1.69724E-04
 -1       211 7.76091E-05 1.18048E-03 6.39468E-05
 -1       212 7.01300E-08 1.04468E-03-4.31003E-08
 -1       213-7.79744E-05 1.17895E-03-6.39447E-05
 -1       214-1.69232E-07 8.64971E-04 9.61468E-08
 -1       215-1.55799E-05 4.87684E-04 1.14333E-04
 -1       216 4.40310E-08 4.98298E-04 5.04466E-08
 -1       217 1.56511E-05 4.88024E-04-1.14346E-04
 -1       218 4.53255E-08 1.89387E-04 3.19298E-09
 -1       250-3.91650E-09 1.17394E-03-6.34918E-05
 -1       251-4.92335E-07 7.43480E-04-2.30933E-08
 -1       252-1.18353E-08 9.48041E-04-2.63583E-08
 -1       253 5.02523E-07 7.43474E-04-3.09384E-08
 -1       254-8.19925E-09 1.17333E-03 6.34790E-05
 -1       255 2.39847E-09 8.46174E-04 7.42127E-09
 -1       256-1.59657E-09 4.81439E-04-1.27534E-04
 -1       257 1.31392E-07 5.62292E-04-7.03851E-09
 -1       258-6.84477E-09 4.98987E-04-9.71724E-10
 -1       259-1.31264E-07 5.62291E-04-2.73912E-09
 -1       260-2.40944E-09 4.81560E-04 1.27535E-04
 -1       261 4.45188E-10 2.14236E-04 4.68928E-09
 -3
    1PSTEP                         5           5           1          
  100CL  105 2.50000E-02          81                     1    5           1
 -4  DISP        4    1
 -5  D1          1    2    1    0
 -5  D2          1    2    2    0
 -5  D3          1    2    3    0
 -5  ALL         1    2    0    0    1ALL
 -1         5 0.00000E+00 0.00000E+00 0.00000E+00
 -1         6 0.00000E+00 0.00000E+00 0.00000E+00
 -1         7 0.00000E+00 0.00000E+00 0.00000E+00
 -1         8 0.00000E+00 0.00000E+00 0.00000E+00
 -1        21 0.00000E+00 0.00000E+00 0.00000E+00
 -1        22 0.00000E+00 0.00000E+00 0.00000E+00
 -1        23 0.00000E+00 0.00000E+00 0.00000E+00
 -1        24 0.00000E+00 0.00000E+00 0.00000E+00
 -1        25 0.00000E+00 0.00000E+00 0.00000E+00
 -1        26 0.00000E+00 0.00000E+00 0.00000E+00
 -1        27 0.00000E+00 0.00000E+00 0.00000E+00
 -1        28 0.00000E+00 0.00000E+00 0.00000E+00
 -1        29 0.00000E+00 0.00000E+00 0.00000E+00
 -1        30 0.00000E+00 0.00000E+00 0.00000E+00
 -1        31 0.00000E+00 0.00000E+00 0.00000E+00
 -1        32 0.00000E+00 0.00000E+00 0.00000E+00
 -1        44 7.01748E-05-7.47522E-04 1.08518E-04
 -1        45 1.58287E-05-5.80662E-04 1.75144E-04
 -1        46-1.90712E-05-4.23525E-04 2.00326E-04
 -1        47 2.51583E-05-1.71553E-04 1.31830E-04
 -1        48-2.51473E-05-1.71558E-04 1.31846E-04
 -1        49 1.91049E-05-4.23565E-04 2.00344E-04
 -1        50-1.58900E-05-5.80598E-04 1.75098E-04
 -1        51-7.03481E-05-7.47377E-04 1.08569E-04
 -1        74-7.24312E-05-7.46555E-04-1.08556E-04
 -1        75-1.68814E-05-5.79943E-04-1.74960E-04
 -1        76 1.95413E-05-4.23785E-04-2.00317E-04
 -1        77-2.48517E-05-1.71726E-04-1.31879E-04
 -1        89 7.22486E-05-7.46761E-04-1.08521E-04
 -1        90 1.68106E-05-5.79978E-04-1.74995E-04
 -1        91-1.94970E-05-4.23766E-04-2.00294E-04
 -1        92 2.48606E-05-1.71719E-04-1.31852E-04
 -1        98 0.00000E+00 0.00000E+00 0.00000E+00
 -1        99 0.00000E+00 0.00000E+00 0.00000E+00
 -1       100 0.00000E+00 0.00000E+00 0.00000E+00
 -1       101 0.00000E+00 0.00000E+00 0.00000E+00
 -1       102 0.00000E+00 0.00000E+00 0.00000E+00
 -1       124-2.52378E-06-6.86209E-04 1.02279E-04
 -1       125-8.57970E-08-8.20929E-04 1.07357E-04
 -1       126 2.39492E-06-6.86196E-04 1.02243E-04
 -1       127 1.73138E-09-6.03924E-04 1.93297E-04
 -1       128 1.57801E-06-4.45090E-04 2.15051E-04
 -1       129-1.42390E-08-4.12817E-04 2.19170E-04
 -1       130-1.58661E-06-4.45088E-04 2.15047E-04
 -1       131 7.85476E-09-1.74281E-04 1.28091E-04
 -1       153-5.85074E-05-8.90439E-04 4.81838E-05
 -1       154-8.02275E-07-7.88732E-04 8.99739E-08
 -1       155 5.93818E-05-8.89094E-04-4.83138E-05
 -1       156-1.81832E-07-6.52700E-04 8.79328E-08
 -1       157 1.17674E-05-3.68081E-04 8.62790E-05
 -1       158 1.84626E-07-3.76120E-04-2.05460E-09
 -1       159-1.19949E-05-3.68402E-04-8.62850E-05
 -1       160 6.58692E-08-1.42907E-04 6.69691E-09
 -1       182-4.17210E-06-6.86293E-04-1.02337E-04
 -1       183-1.20076E-07-8.21398E-04-1.07301E-04
 -1       184 4.00721E-06-6.86307E-04-1.02295E-04
 -1       185 7.46468E-09-6.04426E-04-1.93488E-04
 -1       186 1.91759E-06-4.45083E-04-2.15039E-04
 -1       187-1.87345E-08-4.12617E-04-2.19272E-04
 -1       188-1.92578E-06-4.45093E-04-2.15035E-04
 -1       189 9.01239E-09-1.74124E-04-1.28086E-04
 -1       211-5.94451E-05-8.89237E-04-4.82234E-05
 -1       212 7.52168E-07-7.88691E-04-4.51219E-08
 -1       213 5.84627E-05-8.90284E-04 4.82313E-05
 -1       214 2.27196E-07-6.52716E-04 9.85810E-08
 -1       215 1.19887E-05-3.68373E-04-8.62971E-05
 -1       216-2.19054E-07-3.76105E-04 1.49230E-08
 -1       217-1.17812E-05-3.68105E-04 8.62750E-05
 -1       218-6.05525E-08-1.42908E-04-4.51959E-09
 -1       250 7.85627E-09-8.85632E-04 4.79085E-05
 -1       251-2.47815E-07-5.61116E-04-5.69170E-08
 -1       252 1.26953E-07-7.14802E-04 7.16035E-08
 -1       253 3.27734E-07-5.61141E-04 8.83727E-08
 -1       254-1.05576E-08-8.86905E-04-4.77641E-05
 -1       255-1.67884E-08-6.38451E-04-2.85143E-08
 -1       256 1.03358E-08-3.63437E-04 9.62106E-05
 -1       257 5.93793E-08-4.24362E-04 7.24378E-09
 -1       258 2.93196E-08-3.76662E-04-6.74710E-09
 -1       259-3.94477E-08-4.24368E-04-1.99394E-08
 -1       260 8.25201E-09-3.63112E-04-9.62231E-05
 -1       261-8.08810E-09-1.61771E-04-5.83426E-09
 -3
    1PSTEP                         6           6           1          
  100CL  106 3.00000E-02          81                     1    6           1
 -4  DISP        4    1
 -5  D1          1    2    1    0
 -5  D2          1    2    2    0
 -5  D3          1    2    3    0
 -5  ALL         1    2    0    0    1ALL
 -1         5 0.00000E+00 0.00000E+00 0.00000E+00
 -1         6 0.00000E+00 0.00000E+00 0.00000E+00
 -1         7 0.00000E+00 0.00000E+00 0.00000E+00
 -1         8 0.00000E+00 0.00000E+00 0.00000E+00
 -1        21 0.00000E+00 0.00000E+00 0.00000E+00
 -1        22 0.00000E+00 0.00000E+00 0.00000E+00
 -1        23 0.00000E+00 0.00000E+00 0.00000E+00
 -1        24 0.00000E+00 0.00000E+00 0.00000E+00
 -1        25 0.00000E+00 0.00000E+00 0.00000E+00
 -1        26 0.00000E+00 0.00000E+00 0.00000E+00
 -1        27 0.00000E+00 0.00000E+00 0.00000E+00
 -1        28 0.00000E+00 0.00000E+00 0.00000E+00
 -1        29 0.00000E+00 0.00000E+00 0.00000E+00
 -1        30 0.00000E+00 0.00000E+00 0.00000E+00
 -1        31 0.00000E+00 0.00000E+00 0.00000E+00
 -1        32 0.00000E+00 0.00000E+00 0.00000E+00
 -1        44-5.11789E-05 5.41461E-04-7.87535E-05
 -1        45-1.17161E-05 4.20592E-04-1.26981E-04
 -1        46 1.39791E-05 3.07567E-04-1.45357E-04
 -1        47-1.81849E-05 1.24534E-04-9.56397E-05