
 displacements (vx,vy,vz) for set NALL and time  0.5000000E-02

         5  0.000000E+00  0.000000E+00  0.000000E+00
         6  0.000000E+00  0.000000E+00  0.000000E+00
         7  0.000000E+00  0.000000E+00  0.000000E+00
         8  0.000000E+00  0.000000E+00  0.000000E+00
        21  0.000000E+00  0.000000E+00  0.000000E+00
        22  0.000000E+00  0.000000E+00  0.000000E+00
        23  0.000000E+00  0.000000E+00  0.000000E+00
        24  0.000000E+00  0.000000E+00  0.000000E+00
        25  0.000000E+00  0.000000E+00  0.000000E+00
        26  0.000000E+00  0.000000E+00  0.000000E+00
        27  0.000000E+00  0.000000E+00  0.000000E+00
        28  0.000000E+00  0.000000E+00  0.000000E+00
        29  0.000000E+00  0.000000E+00  0.000000E+00
        30  0.000000E+00  0.000000E+00  0.000000E+00
        31  0.000000E+00  0.000000E+00  0.000000E+00
        32  0.000000E+00  0.000000E+00  0.000000E+00
        44 -6.038110E-05 -3.465277E-03  4.480725E-04
        45  5.668019E-05 -2.561949E-03  7.854373E-04
        46 -4.777629E-05 -1.795366E-03  9.489891E-04
        47  1.309796E-04 -6.748512E-04  5.429661E-04
        48 -1.310081E-04 -6.748724E-04  5.430210E-04
        49  4.763641E-05 -1.795398E-03  9.491107E-04
        50 -5.695090E-05 -2.561953E-03  7.856604E-04
        51  5.975567E-05 -3.465400E-03  4.484665E-04
        74  3.191374E-04 -4.413477E-03 -4.945207E-04
        75  1.913905E-04 -2.972632E-03 -7.847204E-04
        76 -1.107071E-04 -1.596889E-03 -9.497688E-04
        77 -2.080001E-04 -5.263585E-04 -5.580540E-04
        89 -3.197438E-04 -4.413372E-03 -4.941591E-04
        90 -1.916622E-04 -2.972627E-03 -7.845070E-04
        91  1.105688E-04 -1.596858E-03 -9.496472E-04
        92  2.079714E-04 -5.263372E-04 -5.579990E-04
        98  0.000000E+00  0.000000E+00  0.000000E+00
        99  0.000000E+00  0.000000E+00  0.000000E+00
       100  0.000000E+00  0.000000E+00  0.000000E+00
       101  0.000000E+00  0.000000E+00  0.000000E+00
       102  0.000000E+00  0.000000E+00  0.000000E+00
       124  1.484684E-04 -2.965610E-03  4.292829E-04
       125 -2.475404E-07 -3.588371E-03  4.487149E-04
       126 -1.490159E-04 -2.965557E-03  4.291351E-04
       127 -1.538226E-07 -2.562122E-03  9.034342E-04
       128 -9.022181E-06 -1.952602E-03  9.480327E-04
       129 -4.718042E-08 -1.814334E-03  9.412637E-04
       130  8.906738E-06 -1.952584E-03  9.479608E-04
       131 -9.293159E-09 -7.364251E-04  5.563244E-04
       153  6.985905E-05 -3.634669E-03  1.906886E-04
       154 -1.207933E-04 -2.501666E-03 -2.091331E-05
       155 -6.568277E-05 -3.887963E-03 -2.378905E-04
       156 -1.205779E-04 -2.789003E-03 -6.463835E-05
       157 -2.067369E-05 -1.508804E-03  3.922373E-04
       158  8.844555E-05 -1.566683E-03 -2.958975E-05
       159  4.669030E-05 -1.475316E-03 -4.111154E-04
       160  3.987076E-05 -6.565352E-04  4.844417E-06
       182  1.139426E-04 -2.561311E-03 -4.708503E-04
       183 -2.417604E-07 -4.355105E-03 -4.762659E-04
       184 -1.144768E-04 -2.561270E-03 -4.707180E-04
       185 -1.552553E-07 -2.833044E-03 -8.734150E-04
       186 -4.408176E-05 -2.162276E-03 -9.825739E-04
       187 -4.657110E-08 -1.831420E-03 -9.635735E-04
       188  4.396790E-05 -2.162259E-03 -9.825027E-04
       189 -9.300153E-09 -7.198026E-04 -5.644869E-04
       211  6.498425E-05 -3.887917E-03 -2.375486E-04
       212  1.200309E-04 -2.501672E-03 -2.051573E-05
       213 -7.056869E-05 -3.634729E-03  1.910460E-04
       214  1.203294E-04 -2.789002E-03 -6.440976E-05
       215 -4.684904E-05 -1.475300E-03 -4.109858E-04
       216 -8.862373E-05 -1.566684E-03 -2.946982E-05
       217  2.051454E-05 -1.508821E-03  3.923677E-04
       218 -3.990585E-05 -6.565352E-04  4.884024E-06
       250 -2.435038E-07 -4.081871E-03  1.749433E-04
       251  3.005255E-05 -2.571689E-03 -1.016979E-05
       252 -2.349659E-07 -3.123269E-03 -1.491210E-05
       253 -3.065323E-05 -2.571685E-03 -1.023910E-05
       254 -2.392765E-07 -4.413179E-03 -2.540984E-04
       255 -1.739782E-07 -2.598696E-03 -3.191918E-05
       256 -4.347248E-08 -1.607185E-03  3.954805E-04
       257 -4.123304E-05 -1.749118E-03 -1.195375E-05
       258 -3.774538E-08 -1.790384E-03 -1.460456E-05
       259  4.110815E-05 -1.749118E-03 -1.204211E-05
       260 -4.354533E-08 -1.622272E-03 -4.180996E-04
       261 -1.700072E-08 -7.170060E-04 -2.009589E-06

 forces (fx,fy,fz) for set NALL and time  0.5000000E-02

         5  2.294016E+00 -4.175266E+00 -1.107587E+00
         6 -2.293657E+00 -4.175399E+00 -1.107203E+00
         7  3.461764E+00  1.093590E+00  1.269203E+00
         8 -3.461411E+00  1.093462E+00  1.268837E+00
        21 -2.778561E+00  5.574032E+00 -1.789184E+01
        22  7.132647E-05 -9.891559E+00 -6.642649E-01
        23  2.777972E+00  5.573302E+00 -1.789128E+01
        24 -4.630098E+00  1.710843E+01 -1.021428E+01
        25  8.596623E-01 -1.150970E+01 -4.642591E-01
        26  2.141387E+00  1.341213E+01  1.050538E+01
        27 -1.815579E+00 -4.538737E-01  1.759609E+01
        28  7.488199E-05 -1.598226E+00  1.776793E+00
        29  1.815007E+00 -4.545738E-01  1.759551E+01
        30 -2.140158E+00  1.341198E+01  1.050393E+01
        31 -8.585529E-01 -1.150970E+01 -4.654147E-01
        32  4.631357E+00  1.710856E+01 -1.021572E+01
        44  1.906357E+00  5.185856E+01  1.444119E+00
        45 -7.131308E-06 -6.080380E-01  1.525634E-01
        46  5.450890E-06  1.541473E+00 -4.634098E-01
        47 -1.911844E-06 -1.167011E+00  5.403038E-01
        48  2.089463E-06 -1.167010E+00  5.403044E-01
        49 -4.880357E-06  1.541474E+00 -4.634100E-01
        50  5.313687E-06 -6.080403E-01  1.525630E-01
        51 -1.907294E+00  5.185814E+01  1.445669E+00
        74 -7.384391E+00  1.750723E+01 -9.823584E-01
        75  6.456269E-07 -6.081234E-01 -1.525356E-01
        76 -1.637882E-06  1.541534E+00  4.634018E-01
        77  4.014527E-06 -1.167024E+00 -5.403001E-01
        89  7.383534E+00  1.750757E+01 -9.808304E-01
        90 -3.467961E-06 -6.081198E-01 -1.525355E-01
        91  2.119432E-06  1.541534E+00  4.634019E-01
        92 -3.430538E-06 -1.167026E+00 -5.403000E-01
        98 -7.949033E-04  3.798583E+01 -1.717029E+01
        99 -2.291604E-01 -7.607883E+00  6.576706E-01
       100 -3.519247E-04 -2.289888E+01 -3.909712E-01
       101  2.282958E-01 -7.607891E+00  6.580368E-01
       102 -8.038872E-04  3.527463E+01  1.649864E+01
       124  1.699342E+01  1.974497E+01 -6.346738E-01
       125 -4.885755E-04  1.114837E+02  2.989382E+00
       126 -1.699165E+01  1.974608E+01 -6.335155E-01
       127  4.398565E-07 -1.216077E+00  3.051177E-01
       128  4.557346E-06 -2.615777E+00  9.358650E-01
       129 -1.978104E-07  3.082946E+00 -9.268166E-01
       130 -5.016798E-06 -2.615776E+00  9.358641E-01
       131  5.295622E-07 -2.334021E+00  1.080606E+00
       153  1.155083E+01 -1.326327E+02 -2.317394E+00
       154 -2.896931E+00  9.849446E+01  4.489840E-01
       155  4.109627E+00 -1.081668E+02  1.398896E+00
       156 -1.171616E-05 -1.216153E+00 -2.478954E-05
       157 -7.607176E-06 -2.615785E+00  7.018891E-01
       158  5.803677E-06  3.083006E+00  1.159795E-05
       159 -1.389568E-07 -2.615848E+00 -7.018921E-01
       160 -1.208056E-06 -2.334038E+00 -3.363790E-06
       182  7.946953E+00  6.539824E+01  4.126783E-01
       183 -4.252658E-04  5.155254E+01 -1.372502E+00
       184 -7.945214E+00  6.539927E+01  4.113089E-01
       185  1.291365E-06 -6.742573E+00 -3.050653E-01
       186  2.521128E-06 -8.142179E+00 -9.358385E-01
       187 -4.799485E-07 -2.443243E+00  9.268048E-01
       188 -2.878672E-06 -8.142177E+00 -9.358381E-01
       189  4.008592E-07 -7.860373E+00 -1.080595E+00
       211 -4.111424E+00 -1.081668E+02  1.399131E+00
       212  2.894150E+00  9.849439E+01  4.530392E-01
       213 -1.155270E+01 -1.326327E+02 -2.316949E+00
       214  9.290979E-06 -1.216154E+00 -2.298064E-05
       215 -1.520307E-06 -2.615846E+00 -7.018923E-01
       216 -4.644121E-06  3.083005E+00  1.076123E-05
       217  6.236500E-06 -2.615787E+00  7.018893E-01
       218  5.972385E-07 -2.334038E+00 -4.638788E-06
       250  1.359853E-03 -2.938132E+02 -5.868310E+00
       251  5.227906E+00  8.827228E+01  5.249216E-01
       252 -5.600458E-04  2.056172E+02  1.379253E+00
       253 -5.224946E+00  8.827233E+01  5.307364E-01
       254  1.413548E-03 -2.683256E+02  1.521438E+00
       255  3.291478E-06 -2.432314E+00 -6.072733E-05
       256  8.448582E-07 -5.231571E+00  1.403768E+00
       257  7.240968E-06 -5.231633E+00 -2.667988E-05
       258 -6.528531E-07  6.166016E+00  2.392870E-05
       259 -6.920853E-06 -5.231632E+00 -2.695524E-05
       260  1.693386E-06 -5.231707E+00 -1.403780E+00
       261 -4.982010E-07 -4.668080E+00 -9.360841E-06

 displacements (vx,vy,vz) for set NALL and time  0.1000000E-01

         5  0.000000E+00  0.000000E+00  0.000000E+00
         6  0.000000E+00  0.000000E+00  0.000000E+00
         7  0.000000E+00  0.000000E+00  0.000000E+00
         8  0.000000E+00  0.000000E+00  0.000000E+00
        21  0.000000E+00  0.000000E+00  0.000000E+00
        22  0.000000E+00  0.000000E+00  0.000000E+00
        23  0.000000E+00  0.000000E+00  0.000000E+00
        24  0.000000E+00  0.000000E+00  0.000000E+00
        25  0.000000E+00  0.000000E+00  0.000000E+00
        26  0.000000E+00  0.000000E+00  0.000000E+00
        27  0.000000E+00  0.000000E+00  0.000000E+00
        28  0.000000E+00  0.000000E+00  0.000000E+00
        29  0.000000E+00  0.000000E+00  0.000000E+00
        30  0.000000E+00  0.000000E+00  0.000000E+00
        31  0.000000E+00  0.000000E+00  0.000000E+00
        32  0.000000E+00  0.000000E+00  0.000000E+00
        44 -1.503793E-04  1.609411E-03 -2.337538E-04
        45 -3.496504E-05  1.249474E-03 -3.772215E-04
        46  4.132595E-05  9.135020E-04 -4.321990E-04
        47 -5.405192E-05  3.696762E-04 -2.840193E-04
        48  5.406121E-05  3.696188E-04 -2.839668E-04
        49 -4.115675E-05  9.134828E-04 -4.322519E-04
        50  3.456818E-05  1.249638E-03 -3.771889E-04
        51  1.496974E-04  1.610392E-03 -2.336558E-04
        74  1.528969E-04  1.610000E-03  2.341546E-04
        75  3.598585E-05  1.248666E-03  3.773242E-04
        76 -4.214949E-05  9.145764E-04  4.323209E-04
        77  5.365885E-05  3.697559E-04  2.840408E-04
        89 -1.535865E-04  1.609106E-03  2.342780E-04
        90 -3.632878E-05  1.248474E-03  3.773363E-04
        91  4.226126E-05  9.146031E-04  4.322498E-04
        92 -5.363661E-05  3.698161E-04  2.840693E-04
        98  0.000000E+00  0.000000E+00  0.000000E+00
        99  0.000000E+00  0.000000E+00  0.000000E+00
       100  0.000000E+00  0.000000E+00  0.000000E+00
       101  0.000000E+00  0.000000E+00  0.000000E+00
       102  0.000000E+00  0.000000E+00  0.000000E+00
       124  4.270871E-06  1.478348E-03 -2.203638E-04
       125 -6.062877E-07  1.769390E-03 -2.314204E-04
       126 -5.042663E-06  1.478230E-03 -2.203255E-04
       127 -2.982558E-08  1.301701E-03 -4.169105E-04
       128 -3.463173E-06  9.593281E-04 -4.633881E-04
       129 -1.049813E-07  8.890029E-04 -4.720343E-04
       130  3.400822E-06  9.592569E-04 -4.633718E-04
       131  2.937884E-08  3.752450E-04 -2.759584E-04
       153  1.238574E-04  1.915423E-03 -1.038737E-04
       154  9.313504E-07  1.690330E-03 -1.185985E-08
       155 -1.254913E-04  1.918353E-03  1.040966E-04
       156  3.432112E-07  1.404850E-03 -8.441255E-08
       157 -2.466439E-05  7.932067E-04 -1.859623E-04
       158 -3.517789E-07  8.107999E-04 -2.431698E-08
       159  2.477251E-05  7.931421E-04  1.860590E-04
       160 -1.331386E-07  3.086667E-04 -3.384961E-08
       182  3.481424E-06  1.478461E-03  2.206343E-04
       183 -4.627535E-07  1.770338E-03  2.313545E-04
       184 -4.112257E-06  1.478358E-03  2.206137E-04
       185 -4.992161E-08  1.303003E-03  4.173107E-04
       186 -3.361984E-06  9.599069E-04  4.635422E-04
       187 -7.746481E-08  8.890932E-04  4.723670E-04
       188  3.296870E-06  9.598465E-04  4.635124E-04
       189  2.567965E-08  3.752764E-04  2.760609E-04
       211  1.252366E-04  1.917652E-03  1.040643E-04
       212 -1.281540E-06  1.690320E-03  1.864362E-07
       213 -1.241151E-04  1.916164E-03 -1.037304E-04
       214 -2.579366E-07  1.404881E-03  9.117796E-08
       215 -2.487192E-05  7.932104E-04  1.861208E-04
       216  1.465208E-07  8.107878E-04  5.701320E-08
       217  2.459243E-05  7.931280E-04 -1.859299E-04
       218  1.427845E-07  3.086684E-04 -7.341667E-08
       250 -9.454865E-08  1.907777E-03 -1.031487E-04
       251 -1.118926E-06  1.210430E-03  9.102776E-08
       252  5.252974E-07  1.538678E-03  1.015898E-07
       253  1.370283E-06  1.210437E-03  6.328289E-08
       254 -1.285274E-08  1.906478E-03  1.034319E-04
       255 -7.489574E-08  1.374115E-03  1.442612E-07
       256  2.077925E-09  7.834154E-04 -2.072372E-04
       257  3.135654E-07  9.134981E-04  9.421977E-08
       258  8.272960E-08  8.126972E-04  6.400993E-08
       259 -3.001936E-07  9.135034E-04  3.307170E-08
       260  1.381325E-08  7.838493E-04  2.073253E-04
       261 -4.338170E-08  3.487100E-04  8.388612E-09

 forces (fx,fy,fz) for set NALL and time  0.1000000E-01

         5 -1.663831E+00  3.891523E-01  9.213932E-01
         6  1.663570E+00  3.885494E-01  9.215362E-01
         7 -1.686874E+00  3.904809E-01 -9.215992E-01
         8  1.687106E+00  3.896109E-01 -9.223356E-01
        21  1.030902E+00 -1.650776E+00  8.958780E+00
        22  2.452822E-03  7.302687E-01  1.412453E+00
        23 -1.033190E+00 -1.653555E+00  8.958349E+00
        24  1.174677E+00 -5.898324E+00  4.718650E+00
        25 -9.990463E-03  2.487951E+00 -1.352130E-03
        26 -1.153858E+00 -5.920511E+00 -4.717458E+00
        27  1.054059E+00 -1.642167E+00 -8.960222E+00
        28  2.179331E-03  7.167853E-01 -1.409592E+00
        29 -1.056463E+00 -1.645212E+00 -8.960131E+00
        30  1.155010E+00 -5.916145E+00 -4.716692E+00
        31  1.092879E-02  2.488110E+00 -3.271132E-03
        32 -1.174228E+00 -5.903025E+00  4.718528E+00
        44 -6.115765E+00 -1.514116E+01 -7.541775E-01
        45  6.107672E-06  5.208353E-01 -1.306833E-01
        46 -4.673496E-06 -1.320401E+00  3.969495E-01
        47  1.646869E-06  9.996432E-01 -4.628157E-01
        48 -1.799019E-06  9.996421E-01 -4.628162E-01
        49  4.184817E-06 -1.320402E+00  3.969497E-01
        50 -4.550764E-06  5.208373E-01 -1.306830E-01
        51  6.112185E+00 -1.514665E+01 -7.507693E-01
        74  6.264883E+00 -1.517349E+01  7.477782E-01
        75 -5.476035E-07  5.209086E-01  1.306595E-01
        76  1.404597E-06 -1.320454E+00 -3.969427E-01
        77 -3.448515E-06  9.996540E-01  4.628125E-01
        89 -6.270086E+00 -1.516786E+01  7.535991E-01
        90  2.965132E-06  5.209054E-01  1.306595E-01
        91 -1.817053E-06 -1.320453E+00 -3.969428E-01
        92  2.948274E-06  9.996559E-01  4.628125E-01
        98 -2.819458E-04 -1.287419E+01  8.223028E+00
        99  1.269919E-03  3.874639E+00 -8.488457E-04
       100 -5.259570E-03  5.347181E+00  1.489640E-03
       101  3.165403E-03  3.873969E+00 -9.599982E-04
       102 -1.162360E-03 -1.286647E+01 -8.223697E+00
       124 -6.418982E+00 -1.695080E+01  4.652805E-01
       125 -1.177329E-02 -3.103153E+01 -1.399523E+00
       126  6.427553E+00 -1.693992E+01  4.711543E-01
       127 -3.768129E-07  1.041671E+00 -2.613589E-01
       128 -3.909467E-06  2.240633E+00 -8.016472E-01
       129  1.694732E-07 -2.640803E+00  7.938964E-01
       130  4.302988E-06  2.240632E+00 -8.016464E-01
       131 -4.536193E-07  1.999285E+00 -9.256298E-01
       153  4.556045E+00  5.178720E+01  1.173183E+00
       154  7.589078E-02 -3.333949E+01 -7.999527E-03
       155 -4.708629E+00  5.195645E+01 -1.161136E+00
       156  1.002976E-05  1.041737E+00  2.122529E-05
       157  6.521840E-06  2.240640E+00 -6.012271E-01
       158 -4.970903E-06 -2.640853E+00 -9.928985E-06
       159  1.167518E-07  2.240694E+00  6.012297E-01
       160  1.038721E-06  1.999300E+00  2.881445E-06
       182 -6.582209E+00 -1.700649E+01 -4.619623E-01
       183 -1.073897E-02 -3.095519E+01  1.389014E+00
       184  6.591953E+00 -1.699775E+01 -4.661048E-01
       185 -1.106202E-06  1.069527E+00  2.613140E-01
       186 -2.162744E-06  2.268408E+00  8.016245E-01
       187  4.111487E-07 -2.613210E+00 -7.938863E-01
       188  2.468972E-06  2.268406E+00  8.016241E-01
       189 -3.433743E-07  2.027017E+00  9.256210E-01
       211  4.705316E+00  5.192332E+01 -1.173049E+00
       212 -6.825614E-02 -3.333917E+01  2.671294E-03
       213 -4.557393E+00  5.182054E+01  1.170091E+00
       214 -7.952468E-06  1.041737E+00  1.967584E-05
       215  1.304508E-06  2.240692E+00  6.012298E-01
       216  3.977712E-06 -2.640853E+00 -9.212288E-06
       217 -5.347780E-06  2.240641E+00 -6.012273E-01
       218 -5.155144E-07  1.999300E+00  3.973599E-06
       250  2.536078E-06  1.047195E+02  2.308478E+00
       251 -1.923259E-02 -4.699538E+01  1.062897E-03
       252  2.516791E-02 -6.996701E+01 -5.024266E-03
       253  1.149362E-03 -4.699471E+01 -1.395341E-03
       254  2.737277E-03  1.046425E+02 -2.297221E+00
       255 -2.819514E-06  2.083480E+00  5.200267E-05
       256 -7.237318E-07  4.481281E+00 -1.202446E+00
       257 -6.205421E-06  4.481333E+00  2.284550E-05
       258  5.592903E-07 -5.281711E+00 -2.048561E-05
       259  5.931134E-06  4.481333E+00  2.308133E-05
       260 -1.450568E-06  4.481397E+00  1.202456E+00
       261  4.267423E-07  3.998604E+00  8.017825E-06

 displacements (vx,vy,vz) for set NALL and time  0.1500000E-01

         5  0.000000E+00  0.000000E+00  0.000000E+00
         6  0.000000E+00  0.000000E+00  0.000000E+00
         7  0.000000E+00  0.000000E+00  0.000000E+00
         8  0.000000E+00  0.000000E+00  0.000000E+00
        21  0.000000E+00  0.000000E+00  0.000000E+00
        22  0.000000E+00  0.000000E+00  0.000000E+00
        23  0.000000E+00  0.000000E+00  0.000000E+00
        24  0.000000E+00  0.000000E+00  0.000000E+00
        25  0.000000E+00  0.000000E+00  0.000000E+00
        26  0.000000E+00  0.000000E+00  0.000000E+00
        27  0.000000E+00  0.000000E+00  0.000000E+00
        28  0.000000E+00  0.000000E+00  0.000000E+00
        29  0.000000E+00  0.000000E+00  0.000000E+00
        30  0.000000E+00  0.000000E+00  0.000000E+00
        31  0.000000E+00  0.000000E+00  0.000000E+00
        32  0.000000E+00  0.000000E+00  0.000000E+00
        44  1.205812E-04 -1.272766E-03  1.853666E-04
        45  2.772338E-05 -9.887367E-04  2.985883E-04
        46 -3.340959E-05 -7.251763E-04  3.422347E-04
        47  4.264526E-05 -2.933862E-04  2.251004E-04
        48 -4.266184E-05 -2.933809E-04  2.250987E-04
        49  3.340110E-05 -7.251826E-04  3.422098E-04
        50 -2.787425E-05 -9.886027E-04  2.986107E-04
        51 -1.206633E-04 -1.272717E-03  1.854384E-04
        74 -1.212797E-04 -1.268883E-03 -1.854349E-04
        75 -2.861407E-05 -9.872060E-04 -2.988115E-04
        76  3.311815E-05 -7.253083E-04 -3.423466E-04
        77 -4.252536E-05 -2.938437E-04 -2.250996E-04
        89  1.210251E-04 -1.269157E-03 -1.854114E-04
        90  2.860797E-05 -9.871348E-04 -2.988041E-04
        91 -3.309299E-05 -7.252996E-04 -3.423227E-04
        92  4.254248E-05 -2.938177E-04 -2.250758E-04
        98  0.000000E+00  0.000000E+00  0.000000E+00
        99  0.000000E+00  0.000000E+00  0.000000E+00
       100  0.000000E+00  0.000000E+00  0.000000E+00
       101  0.000000E+00  0.000000E+00  0.000000E+00
       102  0.000000E+00  0.000000E+00  0.000000E+00
       124 -5.139527E-07 -1.172330E-03  1.747147E-04
       125 -1.283131E-07 -1.400029E-03  1.832731E-04
       126  3.681188E-07 -1.172273E-03  1.746763E-04
       127 -2.752497E-08 -1.031195E-03  3.302888E-04
       128  2.079617E-06 -7.596868E-04  3.670785E-04
       129 -5.214220E-08 -7.040842E-04  3.740366E-04
       130 -2.142190E-06 -7.597006E-04  3.670982E-04
       131 -4.086992E-09 -2.975732E-04  2.186555E-04
       153 -9.952622E-05 -1.522533E-03  8.240286E-05
       154  7.455159E-07 -1.344029E-03 -7.392711E-08
       155  9.921474E-05 -1.515745E-03 -8.246590E-05
       156  5.340768E-07 -1.114392E-03  9.927238E-08
       157  1.979679E-05 -6.279284E-04  1.472645E-04
       158 -1.252243E-07 -6.416678E-04  6.239207E-08
       159 -1.970909E-05 -6.291136E-04 -1.472973E-04
       160 -1.867180E-07 -2.440981E-04 -2.749494E-08
       182 -5.838627E-06 -1.173961E-03 -1.747268E-04
       183 -8.043418E-08 -1.397303E-03 -1.834397E-04
       184  5.669347E-06 -1.174054E-03 -1.747553E-04
       185 -6.148726E-09 -1.030109E-03 -3.305656E-04
       186  3.144896E-06 -7.593651E-04 -3.670895E-04
       187  1.230245E-08 -7.054140E-04 -3.740587E-04
       188 -3.128255E-06 -7.593710E-04 -3.670656E-04
       189  1.029632E-08 -2.978408E-04 -2.186558E-04
       211 -9.933806E-05 -1.515864E-03 -8.230023E-05
       212 -7.745627E-07 -1.343924E-03 -7.128862E-08
       213  9.954104E-05 -1.522406E-03  8.226780E-05
       214 -5.540679E-07 -1.114413E-03  1.347861E-07
       215  1.970129E-05 -6.290589E-04 -1.473077E-04
       216  9.559334E-08 -6.415850E-04  8.384355E-08
       217 -1.982876E-05 -6.279009E-04  1.473052E-04
       218  1.815943E-07 -2.440860E-04 -2.679873E-08
       250 -4.917311E-08 -1.507797E-03  8.177669E-05
       251 -3.016112E-06 -9.571193E-04 -5.074750E-08
       252  5.928215E-08 -1.222789E-03 -5.688078E-08
       253  3.040160E-06 -9.571887E-04 -5.608991E-08
       254 -1.290170E-08 -1.512263E-03 -8.180508E-05
       255 -1.722883E-08 -1.090117E-03  1.862838E-08
       256 -2.146317E-08 -6.211062E-04  1.642553E-04
       257  6.385343E-07 -7.243100E-04 -1.120137E-08
       258  2.777822E-09 -6.427952E-04 -9.013921E-09
       259 -6.440961E-07 -7.243470E-04 -2.163532E-08
       260  8.385091E-09 -6.204662E-04 -1.642765E-04
       261 -7.782648E-09 -2.758248E-04  2.850248E-08

 forces (fx,fy,fz) for set NALL and time  0.1500000E-01

         5  1.336741E+00 -3.098418E-01 -7.328195E-01
         6 -1.336727E+00 -3.101533E-01 -7.323559E-01
         7  1.312526E+00 -3.126079E-01  7.320923E-01
         8 -1.312403E+00 -3.126861E-01  7.324385E-01
        21 -8.477834E-01  1.307119E+00 -7.098014E+00
        22  5.339334E-04 -5.415633E-01 -1.123726E+00
        23  8.474108E-01  1.306216E+00 -7.097754E+00
        24 -9.260349E-01  4.682718E+00 -3.737790E+00
        25  5.969455E-03 -1.939359E+00  1.019590E-03
        26  9.424129E-01  4.662836E+00  3.736451E+00
        27 -8.180541E-01  1.329870E+00  7.099533E+00
        28  2.151656E-04 -5.947180E-01  1.123091E+00
        29  8.176015E-01  1.329893E+00  7.099700E+00
        30 -9.423026E-01  4.663786E+00  3.735572E+00
        31 -5.995957E-03 -1.940046E+00  8.659144E-04
        32  9.259817E-01  4.682057E+00 -3.737061E+00
        44  4.970973E+00  1.202570E+01  5.934456E-01
        45 -4.852773E-06 -4.142314E-01  1.039353E-01
        46  3.723088E-06  1.050144E+00 -3.157028E-01
        47 -1.326515E-06 -7.950387E-01  3.680877E-01
        48  1.447531E-06 -7.950378E-01  3.680881E-01
        49 -3.334469E-06  1.050145E+00 -3.157029E-01
        50  3.614572E-06 -4.142330E-01  1.039350E-01
        51 -4.971334E+00  1.202455E+01  5.968550E-01
        74 -4.814700E+00  1.205054E+01 -5.967469E-01
        75  4.243745E-07 -4.142896E-01 -1.039163E-01
        76 -1.119419E-06  1.050186E+00  3.156973E-01
        77  2.760130E-06 -7.950473E-01 -3.680852E-01
        89  4.813630E+00  1.205121E+01 -5.985883E-01
        90 -2.347045E-06 -4.142871E-01 -1.039163E-01
        91  1.447417E-06  1.050186E+00  3.156974E-01
        92 -2.362270E-06 -7.950488E-01 -3.680852E-01
        98  6.624120E-05  1.012403E+01 -6.510549E+00
        99  2.731289E-02 -3.101975E+00 -2.196336E-03
       100 -6.651425E-04 -4.155114E+00  3.527038E-03
       101 -2.666288E-02 -3.101027E+00 -1.943610E-03
       102 -8.620185E-05  1.018892E+01  6.511241E+00
       124  5.310562E+00  1.344439E+01 -3.689893E-01
       125 -2.071260E-03  2.430331E+01  1.103229E+00
       126 -5.309643E+00  1.344649E+01 -3.669475E-01
       127  2.997340E-07 -8.284632E-01  2.078644E-01
       128  3.118292E-06 -1.782026E+00  6.375679E-01
       129 -1.348260E-07  2.100289E+00 -6.314035E-01
       130 -3.431220E-06 -1.782025E+00  6.375673E-01
       131  3.607808E-07 -1.590077E+00  7.361742E-01
       153 -3.639646E+00 -4.113610E+01 -9.227222E-01
       154 -8.542464E-02  2.623450E+01 -3.605639E-03
       155  3.551451E+00 -4.097681E+01  9.273948E-01
       156 -7.968368E-06 -8.285152E-01 -1.686828E-05
       157 -5.195760E-06 -1.782031E+00  4.781694E-01
       158  3.952884E-06  2.100329E+00  7.888844E-06
       159 -8.880569E-08 -1.782073E+00 -4.781714E-01
       160 -8.315976E-07 -1.590088E+00 -2.291782E-06
       182  5.089154E+00  1.325285E+01  3.710465E-01
       183 -1.400958E-03  2.477849E+01 -1.109752E+00
       184 -5.087531E+00  1.325340E+01  3.716896E-01
       185  8.798335E-07 -8.300441E-01 -2.078286E-01
       186  1.725539E-06 -1.783542E+00 -6.375498E-01
       187 -3.270348E-07  2.098917E+00  6.313955E-01
       188 -1.969044E-06 -1.783541E+00 -6.375496E-01
       189  2.730994E-07 -1.591559E+00 -7.361671E-01
       211 -3.552290E+00 -4.098197E+01  9.326844E-01
       212  8.759449E-02  2.623479E+01 -2.308135E-03
       213  3.640310E+00 -4.113031E+01 -9.298658E-01
       214  6.316365E-06 -8.285157E-01 -1.563600E-05
       215 -1.041505E-06 -1.782072E+00 -4.781715E-01
       216 -3.163063E-06  2.100329E+00  7.318875E-06
       217  4.262054E-06 -1.782032E+00  4.781695E-01
       218  4.154919E-07 -1.590088E+00 -3.160412E-06
       250 -8.639620E-04 -8.237663E+01 -1.825510E+00
       251 -2.586300E-01  3.747184E+01  3.596530E-04
       252  4.058781E-03  5.493899E+01 -6.319061E-03
       253  2.551966E-01  3.747147E+01  2.551519E-04
       254  5.485324E-04 -8.297271E+01  1.833073E+00
       255  2.242535E-06 -1.657036E+00 -4.133729E-05
       256  5.756514E-07 -3.564062E+00  9.563318E-01
       257  4.939412E-06 -3.564104E+00 -1.815823E-05
       258 -4.449009E-07  4.200662E+00  1.627676E-05
       259 -4.721161E-06 -3.564104E+00 -1.834575E-05
       260  1.153718E-06 -3.564154E+00 -9.563400E-01
       261 -3.393873E-07 -3.180180E+00 -6.376022E-06

 displacements (vx,vy,vz) for set NALL and time  0.2000000E-01

         5  0.000000E+00  0.000000E+00  0.000000E+00
         6  0.000000E+00  0.000000E+00  0.000000E+00
         7  0.000000E+00  0.000000E+00  0.000000E+00
         8  0.000000E+00  0.000000E+00  0.000000E+00
        21  0.000000E+00  0.000000E+00  0.000000E+00
        22  0.000000E+00  0.000000E+00  0.000000E+00
        23  0.000000E+00  0.000000E+00  0.000000E+00
        24  0.000000E+00  0.000000E+00  0.000000E+00
        25  0.000000E+00  0.000000E+00  0.000000E+00
        26  0.000000E+00  0.000000E+00  0.000000E+00
        27  0.000000E+00  0.000000E+00  0.000000E+00
        28  0.000000E+00  0.000000E+00  0.000000E+00
        29  0.000000E+00  0.000000E+00  0.000000E+00
        30  0.000000E+00  0.000000E+00  0.000000E+00
        31  0.000000E+00  0.000000E+00  0.000000E+00
        32  0.000000E+00  0.000000E+00  0.000000E+00
        44 -9.392858E-05  9.892199E-04 -1.437938E-04
        45 -2.145275E-05  7.685624E-04 -2.316966E-04
        46  2.566964E-05  5.616532E-04 -2.654411E-04
        47 -3.318757E-05  2.274031E-04 -1.746926E-04
        48  3.319233E-05  2.273974E-04 -1.746844E-04
        49 -2.562959E-05  5.616487E-04 -2.654402E-04
        50  2.143074E-05  7.685673E-04 -2.317268E-04
        51  9.393747E-05  9.893231E-04 -1.438462E-04
        74  9.590997E-05  9.865470E-04  1.438400E-04
        75  2.263190E-05  7.671630E-04  2.317745E-04
        76 -2.599787E-05  5.621539E-04  2.654805E-04
        77  3.287183E-05  2.278015E-04  1.746836E-04
        89 -9.591683E-05  9.864347E-04  1.437923E-04
        90 -2.266666E-05  7.671396E-04  2.317465E-04
        91  2.602537E-05  5.621487E-04  2.654759E-04
        92 -3.287132E-05  2.278034E-04  1.746892E-04
        98  0.000000E+00  0.000000E+00  0.000000E+00
        99  0.000000E+00  0.000000E+00  0.000000E+00
       100  0.000000E+00  0.000000E+00  0.000000E+00
       101  0.000000E+00  0.000000E+00  0.000000E+00
       102  0.000000E+00  0.000000E+00  0.000000E+00
       124  2.226801E-06  9.090698E-04 -1.355047E-04
       125 -3.807450E-08  1.087948E-03 -1.421465E-04
       126 -2.244528E-06  9.090554E-04 -1.355040E-04
       127  1.470456E-08  8.003802E-04 -2.562910E-04
       128 -1.910591E-06  5.897015E-04 -2.848980E-04
       129 -5.855112E-09  5.466067E-04 -2.903633E-04
       130  1.920147E-06  5.896963E-04 -2.848923E-04
       131  5.348479E-09  2.308404E-04 -1.696923E-04
       153  7.777811E-05  1.179924E-03 -6.388281E-05
       154  1.161897E-07  1.043914E-03  7.091967E-09
       155 -7.830149E-05  1.176846E-03  6.391034E-05
       156 -1.426679E-07  8.649137E-04 -1.395652E-07
       157 -1.559292E-05  4.874739E-04 -1.143075E-04
       158 -3.771809E-08  4.980340E-04 -5.497091E-08
       159  1.570325E-05  4.881132E-04  1.143300E-04
       160  5.743674E-08  1.893529E-04  8.026800E-09
       182  5.069593E-06  9.101080E-04  1.354977E-04
       183 -4.174550E-08  1.086479E-03  1.421526E-04
       184 -5.098554E-06  9.100885E-04  1.354938E-04
       185  6.041353E-09  8.001592E-04  2.565446E-04
       186 -2.517552E-06  5.894751E-04  2.848858E-04
       187 -1.012112E-08  5.470316E-04  2.904426E-04
       188  2.516414E-06  5.894652E-04  2.848771E-04
       189  2.795936E-09  2.308966E-04  1.696991E-04
       211  7.831181E-05  1.176762E-03  6.390016E-05
       212 -1.428756E-07  1.043908E-03 -6.644598E-09
       213 -7.776046E-05  1.179997E-03 -6.387031E-05
       214  1.806700E-07  8.649094E-04 -1.374281E-07
       215 -1.570361E-05  4.881134E-04  1.143235E-04
       216  1.956925E-08  4.980282E-04 -5.535192E-08
       217  1.559868E-05  4.874629E-04 -1.143176E-04
       218 -5.235691E-08  1.893505E-04  6.166152E-10
       250  1.112066E-08  1.172785E-03 -6.341787E-05
       251  1.207710E-06  7.430926E-04 -1.207645E-09