    1C
    1UUSER                                                              
    1UDATE              15.july.2018                                    
    1UTIME              19:47:59                                        
    1UHOST                                                              
    1UPGM               CalculiX                                        
    1UVERSION           Version 2.13                             
    1UCOMPILETIME       jue jun 14 00:40:39 CEST 2018                    
    1UDIR                                                               
    1UDBN                                                               
    1UMAT    1EL                                                        
    2C                            81                                     1
 -1         5 0.00000E+00 0.00000E+00 8.00000E+00
 -1         6 1.00000E+00 0.00000E+00 8.00000E+00
 -1         7 1.00000E+00 1.00000E+00 8.00000E+00
 -1         8 0.00000E+00 1.00000E+00 8.00000E+00
 -1        21 2.50000E-01 0.00000E+00 8.00000E+00
 -1        22 5.00000E-01 0.00000E+00 8.00000E+00
 -1        23 7.50000E-01 0.00000E+00 8.00000E+00
 -1        24 1.00000E+00 2.50000E-01 8.00000E+00
 -1        25 1.00000E+00 5.00000E-01 8.00000E+00
 -1        26 1.00000E+00 7.50000E-01 8.00000E+00
 -1        27 7.50000E-01 1.00000E+00 8.00000E+00
 -1        28 5.00000E-01 1.00000E+00 8.00000E+00
 -1        29 2.50000E-01 1.00000E+00 8.00000E+00
 -1        30 0.00000E+00 7.50000E-01 8.00000E+00
 -1        31 0.00000E+00 5.00000E-01 8.00000E+00
 -1        32 0.00000E+00 2.50000E-01 8.00000E+00
 -1        44 1.00000E+00 0.00000E+00 6.00000E+00
 -1        45 1.00000E+00 0.00000E+00 6.50000E+00
 -1        46 1.00000E+00 0.00000E+00 7.00000E+00
 -1        47 1.00000E+00 0.00000E+00 7.50000E+00
 -1        48 0.00000E+00 0.00000E+00 7.50000E+00
 -1        49 0.00000E+00 0.00000E+00 7.00000E+00
 -1        50 0.00000E+00 0.00000E+00 6.50000E+00
 -1        51 0.00000E+00 0.00000E+00 6.00000E+00
 -1        74 1.00000E+00 1.00000E+00 6.00000E+00
 -1        75 1.00000E+00 1.00000E+00 6.50000E+00
 -1        76 1.00000E+00 1.00000E+00 7.00000E+00
 -1        77 1.00000E+00 1.00000E+00 7.50000E+00
 -1        89 0.00000E+00 1.00000E+00 6.00000E+00
 -1        90 0.00000E+00 1.00000E+00 6.50000E+00
 -1        91 0.00000E+00 1.00000E+00 7.00000E+00
 -1        92 0.00000E+00 1.00000E+00 7.50000E+00
 -1        98 5.00000E-01 2.50000E-01 8.00000E+00
 -1        99 2.50000E-01 5.00000E-01 8.00000E+00
 -1       100 5.00000E-01 5.00000E-01 8.00000E+00
 -1       101 7.50000E-01 5.00000E-01 8.00000E+00
 -1       102 5.00000E-01 7.50000E-01 8.00000E+00
 -1       124 2.50000E-01 0.00000E+00 6.00000E+00
 -1       125 5.00000E-01 0.00000E+00 6.00000E+00
 -1       126 7.50000E-01 0.00000E+00 6.00000E+00
 -1       127 5.00000E-01 0.00000E+00 6.50000E+00
 -1       128 2.50000E-01 0.00000E+00 7.00000E+00
 -1       129 5.00000E-01 0.00000E+00 7.00000E+00
 -1       130 7.50000E-01 0.00000E+00 7.00000E+00
 -1       131 5.00000E-01 0.00000E+00 7.50000E+00
 -1       153 1.00000E+00 2.50000E-01 6.00000E+00
 -1       154 1.00000E+00 5.00000E-01 6.00000E+00
 -1       155 1.00000E+00 7.50000E-01 6.00000E+00
 -1       156 1.00000E+00 5.00000E-01 6.50000E+00
 -1       157 1.00000E+00 2.50000E-01 7.00000E+00
 -1       158 1.00000E+00 5.00000E-01 7.00000E+00
 -1       159 1.00000E+00 7.50000E-01 7.00000E+00
 -1       160 1.00000E+00 5.00000E-01 7.50000E+00
 -1       182 7.50000E-01 1.00000E+00 6.00000E+00
 -1       183 5.00000E-01 1.00000E+00 6.00000E+00
 -1       184 2.50000E-01 1.00000E+00 6.00000E+00
 -1       185 5.00000E-01 1.00000E+00 6.50000E+00
 -1       186 7.50000E-01 1.00000E+00 7.00000E+00
 -1       187 5.00000E-01 1.00000E+00 7.00000E+00
 -1       188 2.50000E-01 1.00000E+00 7.00000E+00
 -1       189 5.00000E-01 1.00000E+00 7.50000E+00
 -1       211 0.00000E+00 7.50000E-01 6.00000E+00
 -1       212 0.00000E+00 5.00000E-01 6.00000E+00
 -1       213 0.00000E+00 2.50000E-01 6.00000E+00
 -1       214 0.00000E+00 5.00000E-01 6.50000E+00
 -1       215 0.00000E+00 7.50000E-01 7.00000E+00
 -1       216 0.00000E+00 5.00000E-01 7.00000E+00
 -1       217 0.00000E+00 2.50000E-01 7.00000E+00
 -1       218 0.00000E+00 5.00000E-01 7.50000E+00
 -1       250 5.00000E-01 2.50000E-01 6.00000E+00
 -1       251 2.50000E-01 5.00000E-01 6.00000E+00
 -1       252 5.00000E-01 5.00000E-01 6.00000E+00
 -1       253 7.50000E-01 5.00000E-01 6.00000E+00
 -1       254 5.00000E-01 7.50000E-01 6.00000E+00
 -1       255 5.00000E-01 5.00000E-01 6.50000E+00
 -1       256 5.00000E-01 2.50000E-01 7.00000E+00
 -1       257 2.50000E-01 5.00000E-01 7.00000E+00
 -1       258 5.00000E-01 5.00000E-01 7.00000E+00
 -1       259 7.50000E-01 5.00000E-01 7.00000E+00
 -1       260 5.00000E-01 7.50000E-01 7.00000E+00
 -1       261 5.00000E-01 5.00000E-01 7.50000E+00
 -3
    3C                             8                                     1
 -1        25    4    0    1
 -2        51       125       252       212        49       129       258       216       124       250
 -2       251       213        50       127       255       214       128       256       257       217
 -1        26    4    0    1
 -2       125        44       154       252       129        46       158       258       126       153
 -2       253       250       127        45       156       255       130       157       259       256
 -1        27    4    0    1
 -2       212       252       183        89       216       258       187        91       251       254
 -2       184       211       214       255       185        90       257       260       188       215
 -1        28    4    0    1
 -2       252       154        74       183       258       158        76       187       253       155
 -2       182       254       255       156        75       185       259       159       186       260
 -1        29    4    0    1
 -2        49       129       258       216         5        22       100        31       128       256
 -2       257       217        48       131       261       218        21        98        99        32
 -1        30    4    0    1
 -2       129        46       158       258        22         6        25       100       130       157
 -2       259       256       131        47       160       261        23        24       101        98
 -1        31    4    0    1
 -2       216       258       187        91        31       100        28         8       257       260
 -2       188       215       218       261       189        92        99       102        29        30
 -1        32    4    0    1
 -2       258       158        76       187       100        25         7        28       259       159
 -2       186       260       261       160        77       189       101        26        27       102
 -3
    1PSTEP                         1           1           1          
  100CL  101 5.00000E-03          81                     1    1           1
 -4  DISP        4    1
 -5  D1          1    2    1    0
 -5  D2          1    2    2    0
 -5  D3          1    2    3    0
 -5  ALL         1    2    0    0    1ALL
 -1         5 0.00000E+00 0.00000E+00 0.00000E+00
 -1         6 0.00000E+00 0.00000E+00 0.00000E+00
 -1         7 0.00000E+00 0.00000E+00 0.00000E+00
 -1         8 0.00000E+00 0.00000E+00 0.00000E+00
 -1        21 0.00000E+00 0.00000E+00 0.00000E+00
 -1        22 0.00000E+00 0.00000E+00 0.00000E+00
 -1        23 0.00000E+00 0.00000E+00 0.00000E+00
 -1        24 0.00000E+00 0.00000E+00 0.00000E+00
 -1        25 0.00000E+00 0.00000E+00 0.00000E+00
 -1        26 0.00000E+00 0.00000E+00 0.00000E+00
 -1        27 0.00000E+00 0.00000E+00 0.00000E+00
 -1        28 0.00000E+00 0.00000E+00 0.00000E+00
 -1        29 0.00000E+00 0.00000E+00 0.00000E+00
 -1        30 0.00000E+00 0.00000E+00 0.00000E+00
 -1        31 0.00000E+00 0.00000E+00 0.00000E+00
 -1        32 0.00000E+00 0.00000E+00 0.00000E+00
 -1        44-6.04799E-05-3.46635E-03 4.48488E-04
 -1        45 5.67250E-05-2.56263E-03 7.85731E-04
 -1        46-4.75075E-05-1.79544E-03 9.49415E-04
 -1        47 1.31040E-04-6.74927E-04 5.43204E-04
 -1        48-1.31025E-04-6.74916E-04 5.43176E-04
 -1        49 4.75861E-05-1.79542E-03 9.49349E-04
 -1        50-5.65827E-05-2.56263E-03 7.85610E-04
 -1        51 6.08365E-05-3.46629E-03 4.48271E-04
 -1        74 3.20536E-04-4.41440E-03-4.94437E-04
 -1        75 1.91916E-04-2.97338E-03-7.84940E-04
 -1        76-1.10762E-04-1.59691E-03-9.49876E-04
 -1        77-2.08074E-04-5.26397E-04-5.58133E-04
 -1        89-3.20180E-04-4.41446E-03-4.94651E-04
 -1        90-1.91773E-04-2.97338E-03-7.85060E-04
 -1        91 1.10840E-04-1.59693E-03-9.49942E-04
 -1        92 2.08089E-04-5.26408E-04-5.58162E-04
 -1        98 0.00000E+00 0.00000E+00 0.00000E+00
 -1        99 0.00000E+00 0.00000E+00 0.00000E+00
 -1       100 0.00000E+00 0.00000E+00 0.00000E+00
 -1       101 0.00000E+00 0.00000E+00 0.00000E+00
 -1       102 0.00000E+00 0.00000E+00 0.00000E+00
 -1       124 1.48885E-04-2.96626E-03 4.29621E-04
 -1       125 1.31147E-07-3.58904E-03 4.48535E-04
 -1       126-1.48582E-04-2.96628E-03 4.29692E-04
 -1       127 8.62262E-08-2.56234E-03 9.03547E-04
 -1       128-8.92600E-06-1.95286E-03 9.48168E-04
 -1       129 2.30182E-08-1.81478E-03 9.41551E-04
 -1       130 8.98738E-06-1.95287E-03 9.48209E-04
 -1       131 5.04749E-09-7.36468E-04 5.56395E-04
 -1       153 7.04837E-05-3.63579E-03 1.91333E-04
 -1       154-1.20092E-04-2.50329E-03-2.08231E-05
 -1       155-6.55204E-05-3.88946E-03-2.37819E-04
 -1       156-1.20308E-04-2.78920E-03-6.45732E-05
 -1       157-2.05650E-05-1.50912E-03 3.92413E-04
 -1       158 8.85161E-05-1.56716E-03-2.94517E-05
 -1       159 4.68922E-05-1.47551E-03-4.11077E-04
 -1       160 3.98690E-05-6.56540E-04 4.89791E-06
 -1       182 1.14802E-04-2.56210E-03-4.71027E-04
 -1       183 1.31664E-07-4.35560E-03-4.76534E-04
 -1       184-1.14500E-04-2.56212E-03-4.71098E-04
 -1       185 8.60808E-08-2.83309E-03-8.73644E-04
 -1       186-4.40582E-05-2.16250E-03-9.82703E-04
 -1       187 2.31563E-08-1.83192E-03-9.63758E-04
 -1       188 4.41195E-05-2.16251E-03-9.82744E-04
 -1       189 5.01425E-09-7.19919E-04-5.64528E-04
 -1       211 6.59138E-05-3.88949E-03-2.38016E-04
 -1       212 1.20510E-04-2.50329E-03-2.10393E-05
 -1       213-7.00892E-05-3.63577E-03 1.91135E-04
 -1       214 1.20444E-04-2.78920E-03-6.46984E-05
 -1       215-4.68050E-05-1.47552E-03-4.11147E-04
 -1       216-8.84212E-05-1.56716E-03-2.95174E-05
 -1       217 2.06524E-05-1.50911E-03 3.92342E-04
 -1       218-3.98506E-05-6.56540E-04 4.87632E-06
 -1       250 1.30115E-07-4.08234E-03 1.74459E-04
 -1       251 3.07706E-05-2.57231E-03-1.04241E-05
 -1       252 1.27772E-07-3.12289E-03-1.53174E-05
 -1       253-3.04431E-05-2.57231E-03-1.03865E-05
 -1       254 1.30269E-07-4.41325E-03-2.54108E-04
 -1       255 9.48318E-08-2.59943E-03-3.19322E-05
 -1       256 2.21477E-08-1.60725E-03 3.95661E-04
 -1       257-4.11737E-05-1.74930E-03-1.20211E-05
 -1       258 1.99027E-08-1.79026E-03-1.45943E-05
 -1       259 4.12402E-05-1.74930E-03-1.19728E-05
 -1       260 2.22436E-08-1.62244E-03-4.18264E-04
 -1       261 8.95016E-09-7.17091E-04-2.00627E-06
 -3
    1PSTEP                         2           2           1          
  100CL  102 1.00000E-02          81                     1    2           1
 -4  DISP        4    1
 -5  D1          1    2    1    0
 -5  D2          1    2    2    0
 -5  D3          1    2    3    0
 -5  ALL         1    2    0    0    1ALL
 -1         5 0.00000E+00 0.00000E+00 0.00000E+00
 -1         6 0.00000E+00 0.00000E+00 0.00000E+00
 -1         7 0.00000E+00 0.00000E+00 0.00000E+00
 -1         8 0.00000E+00 0.00000E+00 0.00000E+00
 -1        21 0.00000E+00 0.00000E+00 0.00000E+00
 -1        22 0.00000E+00 0.00000E+00 0.00000E+00
 -1        23 0.00000E+00 0.00000E+00 0.00000E+00
 -1        24 0.00000E+00 0.00000E+00 0.00000E+00
 -1        25 0.00000E+00 0.00000E+00 0.00000E+00
 -1        26 0.00000E+00 0.00000E+00 0.00000E+00
 -1        27 0.00000E+00 0.00000E+00 0.00000E+00
 -1        28 0.00000E+00 0.00000E+00 0.00000E+00
 -1        29 0.00000E+00 0.00000E+00 0.00000E+00
 -1        30 0.00000E+00 0.00000E+00 0.00000E+00
 -1        31 0.00000E+00 0.00000E+00 0.00000E+00
 -1        32 0.00000E+00 0.00000E+00 0.00000E+00
 -1        44-1.55820E-04 1.60309E-03-2.33964E-04
 -1        45-3.78832E-05 1.24567E-03-3.77425E-04
 -1        46 4.32563E-05 9.16355E-04-4.32309E-04
 -1        47-5.31361E-05 3.70887E-04-2.84005E-04
 -1        48 5.31544E-05 3.70910E-04-2.84054E-04
 -1        49-4.32134E-05 9.16373E-04-4.32381E-04
 -1        50 3.81158E-05 1.24566E-03-3.77522E-04
 -1        51 1.56204E-04 1.60294E-03-2.34094E-04
 -1        74 1.42369E-04 1.61858E-03 2.34278E-04
 -1        75 2.99612E-05 1.25436E-03 3.77584E-04
 -1        76-3.83197E-05 9.11415E-04 4.32433E-04
 -1        77 5.55934E-05 3.68265E-04 2.84123E-04
 -1        89-1.41984E-04 1.61877E-03 2.34178E-04
 -1        90-2.97116E-05 1.25439E-03 3.77494E-04
 -1        91 3.83741E-05 9.11414E-04 4.32366E-04
 -1        92-5.55694E-05 3.68246E-04 2.84076E-04
 -1        98 0.00000E+00 0.00000E+00 0.00000E+00
 -1        99 0.00000E+00 0.00000E+00 0.00000E+00
 -1       100 0.00000E+00 0.00000E+00 0.00000E+00
 -1       101 0.00000E+00 0.00000E+00 0.00000E+00
 -1       102 0.00000E+00 0.00000E+00 0.00000E+00
 -1       124 5.29815E-06 1.48250E-03-2.20576E-04
 -1       125 2.32708E-07 1.76506E-03-2.31296E-04
 -1       126-4.90789E-06 1.48251E-03-2.20504E-04
 -1       127 8.11645E-08 1.30169E-03-4.17931E-04
 -1       128-3.74283E-06 9.58586E-04-4.63556E-04
 -1       129 5.29595E-08 8.89512E-04-4.72589E-04
 -1       130 3.82391E-06 9.58591E-04-4.63523E-04
 -1       131 1.74093E-09 3.75538E-04-2.76077E-04
 -1       153 1.26734E-04 1.91776E-03-1.03787E-04
 -1       154-1.98487E-06 1.69612E-03 1.17146E-07
 -1       155-1.21824E-04 1.92032E-03 1.04167E-04
 -1       156 6.96757E-07 1.40735E-03 1.12814E-06
 -1       157-2.53539E-05 7.93313E-04-1.86032E-04
 -1       158-2.25659E-07 8.09513E-04 4.55541E-07
 -1       159 2.42695E-05 7.92230E-04 1.86109E-04
 -1       160-1.35160E-07 3.07974E-04 4.59332E-08
 -1       182 3.29384E-06 1.47676E-03 2.20747E-04
 -1       183 2.34969E-07 1.77236E-03 2.31626E-04
 -1       184-2.89906E-06 1.47679E-03 2.20697E-04
 -1       185 9.28327E-08 1.30192E-03 4.16343E-04
 -1       186-2.57659E-06 9.60450E-04 4.63808E-04
 -1       187 5.76513E-08 8.90046E-04 4.72096E-04
 -1       188 2.66813E-06 9.60462E-04 4.63778E-04
 -1       189 4.66413E-09 3.75661E-04 2.76030E-04
 -1       211 1.22138E-04 1.92047E-03 1.04045E-04
 -1       212 2.31344E-06 1.69614E-03-1.57768E-08
 -1       213-1.26420E-04 1.91765E-03-1.03940E-04
 -1       214-5.30335E-07 1.40736E-03 1.00152E-06
 -1       215-2.41755E-05 7.92222E-04 1.86031E-04
 -1       216 3.38681E-07 8.09518E-04 3.68185E-07
 -1       217 2.54420E-05 7.93335E-04-1.86108E-04
 -1       218 1.63081E-07 3.07977E-04 1.27595E-08
 -1       250 1.61597E-07 1.90829E-03-1.02947E-04
 -1       251 1.15189E-06 1.20864E-03-9.03058E-08
 -1       252 6.72409E-08 1.54487E-03 1.11720E-07
 -1       253-9.06370E-07 1.20863E-03-2.96039E-08
 -1       254 1.60837E-07 1.91167E-03 1.03625E-04
 -1       255 9.38905E-08 1.37634E-03 1.29028E-07
 -1       256 4.02241E-08 7.83232E-04-2.07304E-04
 -1       257 1.90510E-07 9.14273E-04 2.81390E-08
 -1       258 3.11462E-08 8.11598E-04 7.42420E-08
 -1       259-1.09572E-07 9.14270E-04 7.34202E-08
 -1       260 4.31093E-08 7.83488E-04 2.07448E-04
 -1       261 1.71876E-08 3.48119E-04-2.97868E-09
 -3
    1PSTEP                         3           3           1          
  100CL  103 1.50000E-02          81                     1    3           1
 -4  DISP        4    1
 -5  D1          1    2    1    0
 -5  D2          1    2    2    0
 -5  D3          1    2    3    0
 -5  ALL         1    2    0    0    1ALL
 -1         5 0.00000E+00 0.00000E+00 0.00000E+00
 -1         6 0.00000E+00 0.00000E+00 0.00000E+00
 -1         7 0.00000E+00 0.00000E+00 0.00000E+00
 -1         8 0.00000E+00 0.00000E+00 0.00000E+00
 -1        21 0.00000E+00 0.00000E+00 0.00000E+00
 -1        22 0.00000E+00 0.00000E+00 0.00000E+00
 -1        23 0.00000E+00 0.00000E+00 0.00000E+00
 -1        24 0.00000E+00 0.00000E+00 0.00000E+00
 -1        25 0.00000E+00 0.00000E+00 0.00000E+00
 -1        26 0.00000E+00 0.00000E+00 0.00000E+00
 -1        27 0.00000E+00 0.00000E+00 0.00000E+00
 -1        28 0.00000E+00 0.00000E+00 0.00000E+00
 -1        29 0.00000E+00 0.00000E+00 0.00000E+00
 -1        30 0.00000E+00 0.00000E+00 0.00000E+00
 -1        31 0.00000E+00 0.00000E+00 0.00000E+00
 -1        32 0.00000E+00 0.00000E+00 0.00000E+00
 -1        44 1.28205E-04-1.26874E-03 1.85624E-04
 -1        45 3.14921E-05-9.87123E-04 2.99204E-04
 -1        46-3.47269E-05-7.26132E-04 3.42429E-04
 -1        47 4.17429E-05-2.94347E-04 2.25328E-04
 -1        48-4.17400E-05-2.94364E-04 2.25347E-04
 -1        49 3.47256E-05-7.26151E-04 3.42456E-04
 -1        50-3.15371E-05-9.87155E-04 2.99230E-04
 -1        51-1.28390E-04-1.26863E-03 1.85673E-04
 -1        74-1.14508E-04-1.28170E-03-1.85833E-04
 -1        75-2.37969E-05-9.94547E-04-2.99508E-04
 -1        76 3.08126E-05-7.22517E-04-3.42515E-04
 -1        77-4.39797E-05-2.92237E-04-2.25314E-04
 -1        89 1.14380E-04-1.28176E-03-1.85799E-04
 -1        90 2.36658E-05-9.94601E-04-2.99488E-04
 -1        91-3.08366E-05-7.22520E-04-3.42485E-04
 -1        92 4.39655E-05-2.92238E-04-2.25294E-04
 -1        98 0.00000E+00 0.00000E+00 0.00000E+00
 -1        99 0.00000E+00 0.00000E+00 0.00000E+00
 -1       100 0.00000E+00 0.00000E+00 0.00000E+00
 -1       101 0.00000E+00 0.00000E+00 0.00000E+00
 -1       102 0.00000E+00 0.00000E+00 0.00000E+00
 -1       124-8.91144E-06-1.17592E-03 1.75081E-04
 -1       125-7.44158E-08-1.39995E-03 1.83543E-04
 -1       126 8.76417E-06-1.17595E-03 1.75095E-04
 -1       127-2.33761E-08-1.03247E-03 3.31612E-04
 -1       128 3.80465E-06-7.59670E-04 3.67601E-04
 -1       129-4.07619E-09-7.05369E-04 3.75097E-04
 -1       130-3.81334E-06-7.59667E-04 3.67578E-04
 -1       131 4.08739E-09-2.97550E-04 2.18855E-04
 -1       153-1.03511E-04-1.51845E-03 8.25081E-05
 -1       154 2.92406E-06-1.35124E-03-4.70650E-08
 -1       155 9.82819E-05-1.52619E-03-8.25756E-05
 -1       156-5.98832E-08-1.11661E-03-8.31071E-07
 -1       157 2.09391E-05-6.29667E-04 1.47501E-04
 -1       158-3.93136E-07-6.41585E-04-2.95882E-07
 -1       159-1.98549E-05-6.27668E-04-1.47459E-04
 -1       160-2.69238E-08-2.43581E-04-3.88860E-08
 -1       182-1.09506E-06-1.17184E-03-1.75199E-04
 -1       183-1.06071E-07-1.40416E-03-1.83812E-04
 -1       184 9.38865E-07-1.17183E-03-1.75136E-04
 -1       185-3.35802E-08-1.03156E-03-3.30060E-04
 -1       186 1.73989E-06-7.60635E-04-3.67712E-04
 -1       187-3.70499E-08-7.05209E-04-3.74467E-04
 -1       188-1.79237E-06-7.60644E-04-3.67710E-04
 -1       189-4.31686E-09-2.97793E-04-2.18794E-04
 -1       211-9.83661E-05-1.52626E-03-8.25593E-05
 -1       212-3.02624E-06-1.35128E-03-4.15767E-08
 -1       213 1.03381E-04-1.51840E-03 8.26018E-05
 -1       214 7.01903E-09-1.11662E-03-7.91777E-07
 -1       215 1.98165E-05-6.27681E-04-1.47424E-04
 -1       216 3.53422E-07-6.41619E-04-2.62767E-07
 -1       217-2.09635E-05-6.29699E-04 1.47514E-04
 -1       218 1.77938E-08-2.43590E-04-2.76749E-08
 -1       250-4.38654E-08-1.51685E-03 8.17248E-05
 -1       251 1.38997E-06-9.57462E-04 4.48964E-08
 -1       252-7.39298E-09-1.22540E-03-1.63166E-07
 -1       253-1.45726E-06-9.57436E-04 4.82300E-08
 -1       254-6.40664E-08-1.51348E-03-8.21510E-05
 -1       255-3.26985E-08-1.09222E-03 1.61041E-08
 -1       256-5.64143E-09-6.19826E-04 1.64518E-04
 -1       257-4.55404E-07-7.25337E-04 2.57150E-08
 -1       258-7.78107E-09-6.42508E-04 9.91201E-09
 -1       259 4.31203E-07-7.25321E-04 7.61955E-09
 -1       260-2.10699E-08-6.20917E-04-1.64564E-04
 -1       261-6.65864E-09-2.75803E-04 5.29436E-09
 -3
    1PSTEP                         4           4           1          
  100CL  104 2.00000E-02          81                     1    4           1
 -4  DISP        4    1
 -5  D1          1    2    1    0
 -5  D2          1    2    2    0
 -5  D3          1    2    3    0
 -5  ALL         1    2    0    0    1ALL
 -1         5 0.00000E+00 0.00000E+00 0.00000E+00
 -1         6 0.00000E+00 0.00000E+00 0.00000E+00
 -1         7 0.00000E+00 0.00000E+00 0.00000E+00
 -1         8 0.00000E+00 0.00000E+00 0.00000E+00
 -1        21 0.00000E+00 0.00000E+00 0.00000E+00
 -1        22 0.00000E+00 0.00000E+00 0.00000E+00
 -1        23 0.00000E+00 0.00000E+00 0.00000E+00
 -1        24 0.00000E+00 0.00000E+00 0.00000E+00
 -1        25 0.00000E+00 0.00000E+00 0.00000E+00
 -1        26 0.00000E+00 0.00000E+00 0.00000E+00
 -1        27 0.00000E+00 0.00000E+00 0.00000E+00
 -1        28 0.00000E+00 0.00000E+00 0.00000E+00
 -1        29 0.00000E+00 0.00000E+00 0.00000E+00
 -1        30 0.00000E+00 0.00000E+00 0.00000E+00
 -1        31 0.00000E+00 0.00000E+00 0.00000E+00
 -1        32 0.00000E+00 0.00000E+00 0.00000E+00
 -1        44-9.54600E-05 9.87482E-04-1.43970E-04
 -1        45-2.23903E-05 7.67484E-04-2.31992E-04
 -1        46 2.60128E-05 5.62560E-04-2.65625E-04
 -1        47-3.29486E-05 2.27851E-04-1.74792E-04
 -1        48 3.29431E-05 2.27855E-04-1.74768E-04
 -1        49-2.60161E-05 5.62578E-04-2.65587E-04
 -1        50 2.23104E-05 7.67507E-04-2.32013E-04
 -1        51 9.53209E-05 9.87646E-04-1.43988E-04
 -1        74 9.37621E-05 9.88530E-04 1.43908E-04
 -1        75 2.14707E-05 7.68197E-04 2.32001E-04
 -1        76-2.55592E-05 5.62239E-04 2.65656E-04
 -1        77 3.31992E-05 2.27657E-04 1.74783E-04
 -1        89-9.37962E-05 9.88528E-04 1.43949E-04
 -1        90-2.14934E-05 7.68186E-04 2.31998E-04
 -1        91 2.55893E-05 5.62278E-04 2.65655E-04
 -1        92-3.31918E-05 2.27669E-04 1.74788E-04
 -1        98 0.00000E+00 0.00000E+00 0.00000E+00
 -1        99 0.00000E+00 0.00000E+00 0.00000E+00
 -1       100 0.00000E+00 0.00000E+00 0.00000E+00
 -1       101 0.00000E+00 0.00000E+00 0.00000E+00
 -1       102 0.00000E+00 0.00000E+00 0.00000E+00
 -1       124 3.66853E-06 9.10610E-04-1.35724E-04
 -1       125-8.09783E-08 1.08734E-03-1.42477E-04
 -1       126-3.79874E-06 9.10562E-04-1.35774E-04
 -1       127-1.53653E-08 8.00764E-04-2.56650E-04
 -1       128-2.28413E-06 5.89694E-04-2.85038E-04
 -1       129-1.86998E-08 5.46889E-04-2.90579E-04
 -1       130 2.25861E-06 5.89679E-04-2.85042E-04
 -1       131-1.08190E-09 2.30903E-04-1.69748E-04
 -1       153 7.83135E-05 1.17956E-03-6.40058E-05
 -1       154-5.74216E-07 1.04525E-03-4.41400E-08
 -1       155-7.76814E-05 1.18034E-03 6.39831E-05
 -1       156-8.27577E-08 8.65260E-04 5.03902E-08
 -1       157-1.57185E-05 4.88041E-04-1.14365E-04
 -1       158 8.32341E-08 4.98248E-04 1.79153E-08
 -1       159 1.55512E-05 4.87830E-04 1.14339E-04
 -1       160 2.99559E-08 1.89351E-04 8.81846E-09
 -1       182 2.74781E-06 9.10256E-04 1.35711E-04
 -1       183-3.84378E-08 1.08731E-03 1.42383E-04
 -1       184-2.78518E-06 9.10295E-04 1.35711E-04
 -1       185 4.81312E-09 8.00502E-04 2.56451E-04
 -1       186-2.02400E-06 5.89733E-04 2.85053E-04
 -1       187-5.45924E-09 5.46983E-04 2.90514E-04
 -1       188 2.02896E-06 5.89744E-04 2.85057E-04
 -1       189 6.77277E-09 2.30980E-04 1.69747E-04
 -1       211 7.76642E-05 1.18031E-03 6.39700E-05
 -1       212 5.09372E-07 1.04526E-03-7.96871E-08
 -1       213-7.83977E-05 1.17967E-03-6.39046E-05
 -1       214 8.64911E-08 8.65310E-04 6.73236E-08
 -1       215-1.55551E-05 4.87855E-04 1.14345E-04
 -1       216-1.09030E-07 4.98249E-04 3.12435E-08
 -1       217 1.56997E-05 4.88045E-04-1.14366E-04
 -1       218-3.04224E-08 1.89361E-04 7.88078E-09
 -1       250-2.69806E-08 1.17372E-03-6.35181E-05
 -1       251-7.83216E-08 7.43325E-04-7.07350E-08
 -1       252 3.69858E-08 9.48745E-04-3.53012E-09
 -1       253 7.66800E-08 7.43325E-04-1.11017E-08
 -1       254-8.50069E-09 1.17311E-03 6.35089E-05
 -1       255-1.61976E-08 8.46481E-04-1.07108E-08
 -1       256-4.20731E-09 4.81544E-04-1.27584E-04
 -1       257 2.69121E-08 5.62431E-04 4.10326E-09
 -1       258 8.09237E-09 4.98922E-04-5.06756E-09
 -1       259-2.88016E-08 5.62429E-04-1.26538E-08
 -1       260 2.70602E-09 4.81718E-04 1.27581E-04
 -1       261-4.57934E-09 2.14186E-04-4.43883E-09
 -3
    1PSTEP                         5           5           1          
  100CL  105 2.50000E-02          81                     1    5           1
 -4  DISP        4    1
 -5  D1          1    2    1    0
 -5  D2          1    2    2    0
 -5  D3          1    2    3    0
 -5  ALL         1    2    0    0    1ALL
 -1         5 0.00000E+00 0.00000E+00 0.00000E+00
 -1         6 0.00000E+00 0.00000E+00 0.00000E+00
 -1         7 0.00000E+00 0.00000E+00 0.00000E+00
 -1         8 0.00000E+00 0.00000E+00 0.00000E+00
 -1        21 0.00000E+00 0.00000E+00 0.00000E+00
 -1        22 0.00000E+00 0.00000E+00 0.00000E+00
 -1        23 0.00000E+00 0.00000E+00 0.00000E+00
 -1        24 0.00000E+00 0.00000E+00 0.00000E+00
 -1        25 0.00000E+00 0.00000E+00 0.00000E+00
 -1        26 0.00000E+00 0.00000E+00 0.00000E+00
 -1        27 0.00000E+00 0.00000E+00 0.00000E+00
 -1        28 0.00000E+00 0.00000E+00 0.00000E+00
 -1        29 0.00000E+00 0.00000E+00 0.00000E+00
 -1        30 0.00000E+00 0.00000E+00 0.00000E+00
 -1        31 0.00000E+00 0.00000E+00 0.00000E+00
 -1        32 0.00000E+00 0.00000E+00 0.00000E+00
 -1        44 7.04241E-05-7.47207E-04 1.08643E-04
 -1        45 1.60472E-05-5.80326E-04 1.75104E-04
 -1        46-1.92410E-05-4.24065E-04 2.00472E-04
 -1        47 2.51105E-05-1.71684E-04 1.31894E-04
 -1        48-2.51092E-05-1.71684E-04 1.31900E-04
 -1        49 1.92480E-05-4.24064E-04 2.00477E-04
 -1        50-1.60680E-05-5.80311E-04 1.75095E-04
 -1        51-7.04716E-05-7.47149E-04 1.08648E-04
 -1        74-7.13347E-05-7.46584E-04-1.08643E-04
 -1        75-1.64801E-05-5.79943E-04-1.75099E-04
 -1        76 1.93283E-05-4.24120E-04-2.00469E-04
 -1        77-2.49925E-05-1.71777E-04-1.31899E-04
 -1        89 7.13083E-05-7.46638E-04-1.08650E-04
 -1        90 1.64716E-05-5.79950E-04-1.75110E-04
 -1        91-1.93112E-05-4.24112E-04-2.00471E-04
 -1        92 2.49960E-05-1.71774E-04-1.31896E-04
 -1        98 0.00000E+00 0.00000E+00 0.00000E+00
 -1        99 0.00000E+00 0.00000E+00 0.00000E+00
 -1       100 0.00000E+00 0.00000E+00 0.00000E+00
 -1       101 0.00000E+00 0.00000E+00 0.00000E+00
 -1       102 0.00000E+00 0.00000E+00 0.00000E+00
 -1       124-1.90863E-06-6.86633E-04 1.02382E-04
 -1       125-2.92286E-08-8.21223E-04 1.07410E-04
 -1       126 1.86501E-06-6.86640E-04 1.02366E-04
 -1       127 9.04861E-10-6.04320E-04 1.93532E-04
 -1       128 1.48951E-06-4.45206E-04 2.15142E-04
 -1       129-5.84879E-09-4.12753E-04 2.19260E-04
 -1       130-1.49425E-06-4.45211E-04 2.15144E-04
 -1       131 1.33849E-09-1.74295E-04 1.28131E-04
 -1       153-5.85532E-05-8.91066E-04 4.82417E-05
 -1       154-2.30247E-07-7.88561E-04-1.16560E-09
 -1       155 5.88444E-05-8.89720E-04-4.82726E-05
 -1       156-3.29316E-08-6.53097E-04 3.50791E-08
 -1       157 1.17512E-05-3.68088E-04 8.63180E-05
 -1       158 8.58236E-08-3.76035E-04 1.10323E-08
 -1       159-1.18225E-05-3.68353E-04-8.63214E-05
 -1       160 8.03532E-09-1.42939E-04 1.62679E-09
 -1       182-3.37900E-06-6.86824E-04-1.02391E-04
 -1       183-2.43667E-08-8.21193E-04-1.07463E-04
 -1       184 3.34973E-06-6.86830E-04-1.02405E-04
 -1       185 3.61936E-09-6.04410E-04-1.93615E-04
 -1       186 1.77122E-06-4.45184E-04-2.15140E-04
 -1       187-2.14026E-09-4.12813E-04-2.19290E-04
 -1       188-1.76698E-06-4.45184E-04-2.15140E-04
 -1       189 3.26160E-09-1.74258E-04-1.28126E-04
 -1       211-5.88454E-05-8.89763E-04-4.82705E-05
 -1       212 2.19381E-07-7.88561E-04-2.49059E-08
 -1       213 5.85400E-05-8.91022E-04 4.82600E-05
 -1       214 4.86717E-08-6.53088E-04 3.73999E-08
 -1       215 1.18227E-05-3.68344E-04-8.63255E-05
 -1       216-9.53711E-08-3.76033E-04 1.43195E-08
 -1       217-1.17557E-05-3.68090E-04 8.63169E-05
 -1       218-5.78656E-09-1.42937E-04-2.00430E-09
 -1       250 3.13819E-09-8.85725E-04 4.79128E-05
 -1       251-5.06854E-07-5.61156E-04-1.65278E-08
 -1       252 4.00169E-08-7.16003E-04-1.99191E-08
 -1       253 5.33747E-07-5.61155E-04 1.25660E-08
 -1       254 5.86245E-09-8.86917E-04-4.79195E-05
 -1       255-3.25646E-09-6.38743E-04-1.12747E-08
 -1       256 2.07621E-09-3.63593E-04 9.62664E-05
 -1       257 9.87984E-08-4.24482E-04-9.72540E-10
 -1       258 8.86776E-09-3.76719E-04 3.89581E-09
 -1       259-9.22091E-08-4.24483E-04-6.71372E-09
 -1       260 3.70728E-09-3.63356E-04-9.62650E-05
 -1       261-2.01624E-09-1.61713E-04 5.00543E-10
 -3
    1PSTEP                         6           6           1          
  100CL  106 3.00000E-02          81                     1    6           1
 -4  DISP        4    1
 -5  D1          1    2    1    0
 -5  D2          1    2    2    0
 -5  D3          1    2    3    0
 -5  ALL         1    2    0    0    1ALL
 -1         5 0.00000E+00 0.00000E+00 0.00000E+00
 -1         6 0.00000E+00 0.00000E+00 0.00000E+00
 -1         7 0.00000E+00 0.00000E+00 0.00000E+00
 -1         8 0.00000E+00 0.00000E+00 0.00000E+00
 -1        21 0.00000E+00 0.00000E+00 0.00000E+00
 -1        22 0.00000E+00 0.00000E+00 0.00000E+00
 -1        23 0.00000E+00 0.00000E+00 0.00000E+00
 -1        24 0.00000E+00 0.00000E+00 0.00000E+00
 -1        25 0.00000E+00 0.00000E+00 0.00000E+00
 -1        26 0.00000E+00 0.00000E+00 0.00000E+00
 -1        27 0.00000E+00 0.00000E+00 0.00000E+00
 -1        28 0.00000E+00 0.00000E+00 0.00000E+00
 -1        29 0.00000E+00 0.00000E+00 0.00000E+00
 -1        30 0.00000E+00 0.00000E+00 0.00000E+00
 -1        31 0.00000E+00 0.00000E+00 0.00000E+00
 -1        32 0.00000E+00 0.00000E+00 0.00000E+00
 -1        44-5.15227E-05 5.41162E-04-7.87640E-05
 -1        45-1.18571E-05 4.20446E-04-1.26936E-04
 -1        46 1.40512E-05 3.07661E-04-1.45354E-04
 -1        47-1.81367E-05 1.24582E-04-9.56455E-05