    1C
    1UUSER                                                              
    1UDATE              15.july.2018                                    
    1UTIME              20:28:25                                        
    1UHOST                                                              
    1UPGM               CalculiX                                        
    1UVERSION           Version 2.13                             
    1UCOMPILETIME       jue jun 14 00:40:39 CEST 2018                    
    1UDIR                                                               
    1UDBN                                                               
    1UMAT    1EL                                                        
    2C                            81                                     1
 -1         5 0.00000E+00 0.00000E+00 8.00000E+00
 -1         6 1.00000E+00 0.00000E+00 8.00000E+00
 -1         7 1.00000E+00 1.00000E+00 8.00000E+00
 -1         8 0.00000E+00 1.00000E+00 8.00000E+00
 -1        21 2.50000E-01 0.00000E+00 8.00000E+00
 -1        22 5.00000E-01 0.00000E+00 8.00000E+00
 -1        23 7.50000E-01 0.00000E+00 8.00000E+00
 -1        24 1.00000E+00 2.50000E-01 8.00000E+00
 -1        25 1.00000E+00 5.00000E-01 8.00000E+00
 -1        26 1.00000E+00 7.50000E-01 8.00000E+00
 -1        27 7.50000E-01 1.00000E+00 8.00000E+00
 -1        28 5.00000E-01 1.00000E+00 8.00000E+00
 -1        29 2.50000E-01 1.00000E+00 8.00000E+00
 -1        30 0.00000E+00 7.50000E-01 8.00000E+00
 -1        31 0.00000E+00 5.00000E-01 8.00000E+00
 -1        32 0.00000E+00 2.50000E-01 8.00000E+00
 -1        44 1.00000E+00 0.00000E+00 6.00000E+00
 -1        45 1.00000E+00 0.00000E+00 6.50000E+00
 -1        46 1.00000E+00 0.00000E+00 7.00000E+00
 -1        47 1.00000E+00 0.00000E+00 7.50000E+00
 -1        48 0.00000E+00 0.00000E+00 7.50000E+00
 -1        49 0.00000E+00 0.00000E+00 7.00000E+00
 -1        50 0.00000E+00 0.00000E+00 6.50000E+00
 -1        51 0.00000E+00 0.00000E+00 6.00000E+00
 -1        74 1.00000E+00 1.00000E+00 6.00000E+00
 -1        75 1.00000E+00 1.00000E+00 6.50000E+00
 -1        76 1.00000E+00 1.00000E+00 7.00000E+00
 -1        77 1.00000E+00 1.00000E+00 7.50000E+00
 -1        89 0.00000E+00 1.00000E+00 6.00000E+00
 -1        90 0.00000E+00 1.00000E+00 6.50000E+00
 -1        91 0.00000E+00 1.00000E+00 7.00000E+00
 -1        92 0.00000E+00 1.00000E+00 7.50000E+00
 -1        98 5.00000E-01 2.50000E-01 8.00000E+00
 -1        99 2.50000E-01 5.00000E-01 8.00000E+00
 -1       100 5.00000E-01 5.00000E-01 8.00000E+00
 -1       101 7.50000E-01 5.00000E-01 8.00000E+00
 -1       102 5.00000E-01 7.50000E-01 8.00000E+00
 -1       124 2.50000E-01 0.00000E+00 6.00000E+00
 -1       125 5.00000E-01 0.00000E+00 6.00000E+00
 -1       126 7.50000E-01 0.00000E+00 6.00000E+00
 -1       127 5.00000E-01 0.00000E+00 6.50000E+00
 -1       128 2.50000E-01 0.00000E+00 7.00000E+00
 -1       129 5.00000E-01 0.00000E+00 7.00000E+00
 -1       130 7.50000E-01 0.00000E+00 7.00000E+00
 -1       131 5.00000E-01 0.00000E+00 7.50000E+00
 -1       153 1.00000E+00 2.50000E-01 6.00000E+00
 -1       154 1.00000E+00 5.00000E-01 6.00000E+00
 -1       155 1.00000E+00 7.50000E-01 6.00000E+00
 -1       156 1.00000E+00 5.00000E-01 6.50000E+00
 -1       157 1.00000E+00 2.50000E-01 7.00000E+00
 -1       158 1.00000E+00 5.00000E-01 7.00000E+00
 -1       159 1.00000E+00 7.50000E-01 7.00000E+00
 -1       160 1.00000E+00 5.00000E-01 7.50000E+00
 -1       182 7.50000E-01 1.00000E+00 6.00000E+00
 -1       183 5.00000E-01 1.00000E+00 6.00000E+00
 -1       184 2.50000E-01 1.00000E+00 6.00000E+00
 -1       185 5.00000E-01 1.00000E+00 6.50000E+00
 -1       186 7.50000E-01 1.00000E+00 7.00000E+00
 -1       187 5.00000E-01 1.00000E+00 7.00000E+00
 -1       188 2.50000E-01 1.00000E+00 7.00000E+00
 -1       189 5.00000E-01 1.00000E+00 7.50000E+00
 -1       211 0.00000E+00 7.50000E-01 6.00000E+00
 -1       212 0.00000E+00 5.00000E-01 6.00000E+00
 -1       213 0.00000E+00 2.50000E-01 6.00000E+00
 -1       214 0.00000E+00 5.00000E-01 6.50000E+00
 -1       215 0.00000E+00 7.50000E-01 7.00000E+00
 -1       216 0.00000E+00 5.00000E-01 7.00000E+00
 -1       217 0.00000E+00 2.50000E-01 7.00000E+00
 -1       218 0.00000E+00 5.00000E-01 7.50000E+00
 -1       250 5.00000E-01 2.50000E-01 6.00000E+00
 -1       251 2.50000E-01 5.00000E-01 6.00000E+00
 -1       252 5.00000E-01 5.00000E-01 6.00000E+00
 -1       253 7.50000E-01 5.00000E-01 6.00000E+00
 -1       254 5.00000E-01 7.50000E-01 6.00000E+00
 -1       255 5.00000E-01 5.00000E-01 6.50000E+00
 -1       256 5.00000E-01 2.50000E-01 7.00000E+00
 -1       257 2.50000E-01 5.00000E-01 7.00000E+00
 -1       258 5.00000E-01 5.00000E-01 7.00000E+00
 -1       259 7.50000E-01 5.00000E-01 7.00000E+00
 -1       260 5.00000E-01 7.50000E-01 7.00000E+00
 -1       261 5.00000E-01 5.00000E-01 7.50000E+00
 -3
    3C                             8                                     1
 -1        25    4    0    1
 -2        51       125       252       212        49       129       258       216       124       250
 -2       251       213        50       127       255       214       128       256       257       217
 -1        26    4    0    1
 -2       125        44       154       252       129        46       158       258       126       153
 -2       253       250       127        45       156       255       130       157       259       256
 -1        27    4    0    1
 -2       212       252       183        89       216       258       187        91       251       254
 -2       184       211       214       255       185        90       257       260       188       215
 -1        28    4    0    1
 -2       252       154        74       183       258       158        76       187       253       155
 -2       182       254       255       156        75       185       259       159       186       260
 -1        29    4    0    1
 -2        49       129       258       216         5        22       100        31       128       256
 -2       257       217        48       131       261       218        21        98        99        32
 -1        30    4    0    1
 -2       129        46       158       258        22         6        25       100       130       157
 -2       259       256       131        47       160       261        23        24       101        98
 -1        31    4    0    1
 -2       216       258       187        91        31       100        28         8       257       260
 -2       188       215       218       261       189        92        99       102        29        30
 -1        32    4    0    1
 -2       258       158        76       187       100        25         7        28       259       159
 -2       186       260       261       160        77       189       101        26        27       102
 -3
    1PSTEP                         1           1           1          
  100CL  101 5.00000E-03          81                     1    1           1
 -4  DISP        4    1
 -5  D1          1    2    1    0
 -5  D2          1    2    2    0
 -5  D3          1    2    3    0
 -5  ALL         1    2    0    0    1ALL
 -1         5 0.00000E+00 0.00000E+00 0.00000E+00
 -1         6 0.00000E+00 0.00000E+00 0.00000E+00
 -1         7 0.00000E+00 0.00000E+00 0.00000E+00
 -1         8 0.00000E+00 0.00000E+00 0.00000E+00
 -1        21 0.00000E+00 0.00000E+00 0.00000E+00
 -1        22 0.00000E+00 0.00000E+00 0.00000E+00
 -1        23 0.00000E+00 0.00000E+00 0.00000E+00
 -1        24 0.00000E+00 0.00000E+00 0.00000E+00
 -1        25 0.00000E+00 0.00000E+00 0.00000E+00
 -1        26 0.00000E+00 0.00000E+00 0.00000E+00
 -1        27 0.00000E+00 0.00000E+00 0.00000E+00
 -1        28 0.00000E+00 0.00000E+00 0.00000E+00
 -1        29 0.00000E+00 0.00000E+00 0.00000E+00
 -1        30 0.00000E+00 0.00000E+00 0.00000E+00
 -1        31 0.00000E+00 0.00000E+00 0.00000E+00
 -1        32 0.00000E+00 0.00000E+00 0.00000E+00
 -1        44-5.70893E-05-3.46300E-03 4.48844E-04
 -1        45 5.74666E-05-2.56104E-03 7.85329E-04
 -1        46-4.81683E-05-1.79748E-03 9.49538E-04
 -1        47 1.30809E-04-6.75604E-04 5.43559E-04
 -1        48-1.30749E-04-6.75572E-04 5.43462E-04
 -1        49 4.83841E-05-1.79746E-03 9.49344E-04
 -1        50-5.70114E-05-2.56101E-03 7.85047E-04
 -1        51 5.78777E-05-3.46298E-03 4.48489E-04
 -1        74 3.13567E-04-4.40197E-03-4.94718E-04
 -1        75 1.88229E-04-2.96732E-03-7.84730E-04
 -1        76-1.08247E-04-1.60139E-03-9.49995E-04
 -1        77-2.06960E-04-5.28412E-04-5.58370E-04
 -1        89-3.12777E-04-4.40199E-03-4.95074E-04
 -1        90-1.87775E-04-2.96735E-03-7.85012E-04
 -1        91 1.08463E-04-1.60141E-03-9.50188E-04
 -1        92 2.07021E-04-5.28444E-04-5.58466E-04
 -1        98 0.00000E+00 0.00000E+00 0.00000E+00
 -1        99 0.00000E+00 0.00000E+00 0.00000E+00
 -1       100 0.00000E+00 0.00000E+00 0.00000E+00
 -1       101 0.00000E+00 0.00000E+00 0.00000E+00
 -1       102 0.00000E+00 0.00000E+00 0.00000E+00
 -1       124 1.51601E-04-2.96723E-03 4.29901E-04
 -1       125 3.77015E-07-3.59076E-03 4.48803E-04
 -1       126-1.50837E-04-2.96724E-03 4.30069E-04
 -1       127 2.25169E-07-2.56401E-03 9.04053E-04
 -1       128-9.46269E-06-1.95297E-03 9.48314E-04
 -1       129 9.95922E-08-1.81389E-03 9.41699E-04
 -1       130 9.66687E-06-1.95298E-03 9.48413E-04
 -1       131 2.17173E-08-7.36415E-04 5.56343E-04
 -1       153 6.89474E-05-3.63971E-03 1.91645E-04
 -1       154-1.19349E-04-2.50573E-03-2.09095E-05
 -1       155-6.27921E-05-3.88994E-03-2.37878E-04
 -1       156-1.19096E-04-2.79011E-03-6.40699E-05
 -1       157-2.02714E-05-1.50920E-03 3.92372E-04
 -1       158 8.80162E-05-1.56738E-03-2.91635E-05
 -1       159 4.65944E-05-1.47648E-03-4.10965E-04
 -1       160 3.96216E-05-6.56512E-04 4.94795E-06
 -1       182 1.16190E-04-2.56699E-03-4.71313E-04
 -1       183 3.75068E-07-4.35119E-03-4.76802E-04
 -1       184-1.15428E-04-2.56700E-03-4.71479E-04
 -1       185 2.25853E-07-2.83333E-03-8.74888E-04
 -1       186-4.39435E-05-2.16172E-03-9.82794E-04
 -1       187 9.90488E-08-1.83233E-03-9.64156E-04
 -1       188 4.41475E-05-2.16173E-03-9.82893E-04
 -1       189 2.17885E-08-7.20329E-04-5.64575E-04
 -1       211 6.35618E-05-3.88995E-03-2.38222E-04
 -1       212 1.20084E-04-2.50573E-03-2.12326E-05
 -1       213-6.81776E-05-3.63970E-03 1.91299E-04
 -1       214 1.19593E-04-2.79011E-03-6.43396E-05
 -1       215-4.63799E-05-1.47649E-03-4.11160E-04
 -1       216-8.78111E-05-1.56738E-03-2.93636E-05
 -1       217 2.04854E-05-1.50919E-03 3.92177E-04
 -1       218-3.95439E-05-6.56512E-04 4.84434E-06
 -1       250 4.03497E-07-4.07950E-03 1.74622E-04
 -1       251 3.01742E-05-2.57193E-03-1.05740E-05
 -1       252 4.22475E-07-3.12534E-03-1.51888E-05
 -1       253-2.93905E-05-2.57193E-03-1.03673E-05
 -1       254 4.02273E-07-4.40927E-03-2.54253E-04
 -1       255 2.20199E-07-2.60052E-03-3.18324E-05
 -1       256 1.11179E-07-1.60782E-03 3.95959E-04
 -1       257-4.07171E-05-1.74991E-03-1.20495E-05
 -1       258 1.19552E-07-1.78994E-03-1.46104E-05
 -1       259 4.09364E-05-1.74991E-03-1.19614E-05
 -1       260 1.10960E-07-1.62323E-03-4.18529E-04
 -1       261 2.58421E-08-7.16889E-04-1.97840E-06
 -3
    1PSTEP                         2           2           1          
  100CL  102 1.00000E-02          81                     1    2           1
 -4  DISP        4    1
 -5  D1          1    2    1    0
 -5  D2          1    2    2    0
 -5  D3          1    2    3    0
 -5  ALL         1    2    0    0    1ALL
 -1         5 0.00000E+00 0.00000E+00 0.00000E+00
 -1         6 0.00000E+00 0.00000E+00 0.00000E+00
 -1         7 0.00000E+00 0.00000E+00 0.00000E+00
 -1         8 0.00000E+00 0.00000E+00 0.00000E+00
 -1        21 0.00000E+00 0.00000E+00 0.00000E+00
 -1        22 0.00000E+00 0.00000E+00 0.00000E+00
 -1        23 0.00000E+00 0.00000E+00 0.00000E+00
 -1        24 0.00000E+00 0.00000E+00 0.00000E+00
 -1        25 0.00000E+00 0.00000E+00 0.00000E+00
 -1        26 0.00000E+00 0.00000E+00 0.00000E+00
 -1        27 0.00000E+00 0.00000E+00 0.00000E+00
 -1        28 0.00000E+00 0.00000E+00 0.00000E+00
 -1        29 0.00000E+00 0.00000E+00 0.00000E+00
 -1        30 0.00000E+00 0.00000E+00 0.00000E+00
 -1        31 0.00000E+00 0.00000E+00 0.00000E+00
 -1        32 0.00000E+00 0.00000E+00 0.00000E+00
 -1        44-1.51012E-04 1.60895E-03-2.33883E-04
 -1        45-3.52750E-05 1.24914E-03-3.77306E-04
 -1        46 4.16147E-05 9.14059E-04-4.32330E-04
 -1        47-5.39761E-05 3.69822E-04-2.83986E-04
 -1        48 5.39804E-05 3.69820E-04-2.83990E-04
 -1        49-4.16096E-05 9.14051E-04-4.32335E-04
 -1        50 3.52979E-05 1.24913E-03-3.77308E-04
 -1        51 1.51045E-04 1.60891E-03-2.33876E-04
 -1        74 1.48046E-04 1.61518E-03 2.34134E-04
 -1        75 3.30643E-05 1.25211E-03 3.77330E-04
 -1        76-4.01973E-05 9.12494E-04 4.32349E-04
 -1        77 5.46499E-05 3.68814E-04 2.84061E-04
 -1        89-1.48041E-04 1.61516E-03 2.34125E-04
 -1        90-3.30615E-05 1.25210E-03 3.77327E-04
 -1        91 4.01940E-05 9.12486E-04 4.32344E-04
 -1        92-5.46522E-05 3.68811E-04 2.84059E-04
 -1        98 0.00000E+00 0.00000E+00 0.00000E+00
 -1        99 0.00000E+00 0.00000E+00 0.00000E+00
 -1       100 0.00000E+00 0.00000E+00 0.00000E+00
 -1       101 0.00000E+00 0.00000E+00 0.00000E+00
 -1       102 0.00000E+00 0.00000E+00 0.00000E+00
 -1       124 4.25516E-06 1.47970E-03-2.20393E-04
 -1       125 2.32381E-08 1.76833E-03-2.31286E-04
 -1       126-4.21728E-06 1.47972E-03-2.20400E-04
 -1       127 9.35972E-09 1.30162E-03-4.17384E-04
 -1       128-3.37886E-06 9.59142E-04-4.63529E-04
 -1       129 5.78947E-09 8.89349E-04-4.72290E-04
 -1       130 3.38772E-06 9.59147E-04-4.63527E-04
 -1       131 1.32967E-09 3.75412E-04-2.76038E-04
 -1       153 1.24652E-04 1.91720E-03-1.03815E-04
 -1       154 2.03234E-07 1.69331E-03 9.41320E-08
 -1       155-1.23992E-04 1.91841E-03 1.04072E-04
 -1       156 6.10697E-07 1.40672E-03 4.25175E-07
 -1       157-2.49409E-05 7.92811E-04-1.86040E-04
 -1       158-4.33317E-07 8.09716E-04 1.86937E-07
 -1       159 2.46674E-05 7.92560E-04 1.86125E-04
 -1       160-1.89280E-07 3.08197E-04-1.46719E-08
 -1       182 4.41639E-06 1.47719E-03 2.20609E-04
 -1       183 2.05345E-09 1.77263E-03 2.31450E-04
 -1       184-4.41410E-06 1.47718E-03 2.20598E-04
 -1       185-1.03222E-09 1.30281E-03 4.17025E-04
 -1       186-3.11142E-06 9.60310E-04 4.63716E-04
 -1       187-4.97153E-10 8.89522E-04 4.72315E-04
 -1       188 3.10979E-06 9.60306E-04 4.63715E-04
 -1       189-1.36850E-09 3.75359E-04 2.76063E-04
 -1       211 1.24003E-04 1.91840E-03 1.04068E-04
 -1       212-1.80758E-07 1.69330E-03 8.67464E-08
 -1       213-1.24626E-04 1.91717E-03-1.03832E-04
 -1       214-6.05242E-07 1.40671E-03 4.18365E-07
 -1       215-2.46649E-05 7.92553E-04 1.86121E-04
 -1       216 4.40835E-07 8.09713E-04 1.82592E-07
 -1       217 2.49477E-05 7.92806E-04-1.86042E-04
 -1       218 1.90349E-07 3.08194E-04-1.60887E-08
 -1       250 1.25053E-08 1.90963E-03-1.03041E-04
 -1       251 1.65580E-07 1.20934E-03 3.80741E-08
 -1       252 1.19417E-09 1.54308E-03 8.45065E-08
 -1       253-1.52219E-07 1.20935E-03 3.67591E-08
 -1       254 2.39902E-09 1.91177E-03 1.03472E-04
 -1       255 5.36862E-09 1.37522E-03 1.58039E-07
 -1       256 3.22667E-09 7.83346E-04-2.07254E-04
 -1       257 1.78588E-07 9.13980E-04 5.57609E-08
 -1       258 5.63051E-10 8.12324E-04 7.14674E-08
 -1       259-1.74750E-07 9.13982E-04 5.90996E-08
 -1       260-1.05384E-10 7.83404E-04 2.07371E-04
 -1       261 9.02580E-10 3.48397E-04 8.56335E-09
 -3
    1PSTEP                         3           3           1          
  100CL  103 1.50000E-02          81                     1    3           1
 -4  DISP        4    1
 -5  D1          1    2    1    0
 -5  D2          1    2    2    0
 -5  D3          1    2    3    0
 -5  ALL         1    2    0    0    1ALL
 -1         5 0.00000E+00 0.00000E+00 0.00000E+00
 -1         6 0.00000E+00 0.00000E+00 0.00000E+00
 -1         7 0.00000E+00 0.00000E+00 0.00000E+00
 -1         8 0.00000E+00 0.00000E+00 0.00000E+00
 -1        21 0.00000E+00 0.00000E+00 0.00000E+00
 -1        22 0.00000E+00 0.00000E+00 0.00000E+00
 -1        23 0.00000E+00 0.00000E+00 0.00000E+00
 -1        24 0.00000E+00 0.00000E+00 0.00000E+00
 -1        25 0.00000E+00 0.00000E+00 0.00000E+00
 -1        26 0.00000E+00 0.00000E+00 0.00000E+00
 -1        27 0.00000E+00 0.00000E+00 0.00000E+00
 -1        28 0.00000E+00 0.00000E+00 0.00000E+00
 -1        29 0.00000E+00 0.00000E+00 0.00000E+00
 -1        30 0.00000E+00 0.00000E+00 0.00000E+00
 -1        31 0.00000E+00 0.00000E+00 0.00000E+00
 -1        32 0.00000E+00 0.00000E+00 0.00000E+00
 -1        44 1.30267E-04-1.26478E-03 1.85276E-04
 -1        45 3.20143E-05-9.85898E-04 2.98612E-04
 -1        46-3.53715E-05-7.26047E-04 3.41800E-04
 -1        47 4.14603E-05-2.94565E-04 2.25218E-04
 -1        48-4.14543E-05-2.94568E-04 2.25225E-04
 -1        49 3.53640E-05-7.26060E-04 3.41817E-04
 -1        50-3.20360E-05-9.85889E-04 2.98633E-04
 -1        51-1.30452E-04-1.26474E-03 1.85377E-04
 -1        74-1.23213E-04-1.27090E-03-1.85431E-04
 -1        75-2.80430E-05-9.89578E-04-2.98731E-04
 -1        76 3.30562E-05-7.23979E-04-3.41874E-04
 -1        77-4.26350E-05-2.93502E-04-2.25220E-04
 -1        89 1.23040E-04-1.27092E-03-1.85323E-04
 -1        90 2.80214E-05-9.89597E-04-2.98707E-04
 -1        91-3.30638E-05-7.23961E-04-3.41866E-04
 -1        92 4.26400E-05-2.93499E-04-2.25218E-04
 -1        98 0.00000E+00 0.00000E+00 0.00000E+00
 -1        99 0.00000E+00 0.00000E+00 0.00000E+00
 -1       100 0.00000E+00 0.00000E+00 0.00000E+00
 -1       101 0.00000E+00 0.00000E+00 0.00000E+00
 -1       102 0.00000E+00 0.00000E+00 0.00000E+00
 -1       124-7.35504E-06-1.17515E-03 1.74790E-04
 -1       125-4.59493E-08-1.39774E-03 1.83228E-04
 -1       126 7.23552E-06-1.17515E-03 1.74770E-04
 -1       127-1.83792E-08-1.03090E-03 3.31051E-04
 -1       128 3.53475E-06-7.58930E-04 3.67121E-04
 -1       129 2.94789E-09-7.05211E-04 3.74713E-04
 -1       130-3.53921E-06-7.58928E-04 3.67106E-04
 -1       131 2.93649E-09-2.97605E-04 2.18643E-04
 -1       153-1.04465E-04-1.51804E-03 8.23829E-05
 -1       154 1.65010E-06-1.35177E-03 2.62186E-08
 -1       155 1.01591E-04-1.51942E-03-8.24728E-05
 -1       156 4.48647E-08-1.11536E-03-4.48141E-07
 -1       157 2.10781E-05-6.29410E-04 1.47299E-04
 -1       158-1.53088E-07-6.41671E-04-1.54018E-07
 -1       159-2.04747E-05-6.28824E-04-1.47271E-04
 -1       160-3.97011E-08-2.43456E-04-2.02469E-08
 -1       182-5.52740E-06-1.17318E-03-1.74833E-04
 -1       183-4.37235E-08-1.39940E-03-1.83310E-04
 -1       184 5.41518E-06-1.17318E-03-1.74828E-04
 -1       185-2.02818E-08-1.03020E-03-3.30179E-04
 -1       186 2.86289E-06-7.59405E-04-3.67179E-04
 -1       187 1.83852E-09-7.05509E-04-3.74393E-04
 -1       188-2.86830E-06-7.59401E-04-3.67165E-04
 -1       189 2.74811E-09-2.97778E-04-2.18620E-04
 -1       211-1.01738E-04-1.51946E-03-8.23928E-05
 -1       212-1.79889E-06-1.35178E-03 7.11545E-08
 -1       213 1.04309E-04-1.51800E-03 8.24943E-05
 -1       214-3.59759E-08-1.11535E-03-4.10527E-07
 -1       215 2.04516E-05-6.28813E-04-1.47261E-04
 -1       216 1.21637E-07-6.41675E-04-1.40748E-07
 -1       217-2.11006E-05-6.29422E-04 1.47306E-04
 -1       218 4.31247E-08-2.43456E-04-2.66062E-08
 -1       250-1.23216E-08-1.51188E-03 8.15478E-05
 -1       251-4.69002E-07-9.56435E-04 7.38271E-08
 -1       252 2.62941E-08-1.22161E-03-2.26599E-08
 -1       253 4.18489E-07-9.56430E-04 1.19267E-07
 -1       254-1.16654E-08-1.51209E-03-8.17853E-05
 -1       255-2.66138E-08-1.09110E-03 9.36171E-09
 -1       256 9.98988E-09-6.19998E-04 1.64374E-04
 -1       257-1.38972E-08-7.24996E-04 9.26009E-09
 -1       258 1.60880E-08-6.42167E-04-2.45158E-09
 -1       259 1.67466E-08-7.24994E-04-1.30022E-08
 -1       260 9.42610E-09-6.20258E-04-1.64385E-04
 -1       261-2.93667E-09-2.75898E-04 6.76190E-09
 -3
    1PSTEP                         4           4           1          
  100CL  104 2.00000E-02          81                     1    4           1
 -4  DISP        4    1
 -5  D1          1    2    1    0
 -5  D2          1    2    2    0
 -5  D3          1    2    3    0
 -5  ALL         1    2    0    0    1ALL
 -1         5 0.00000E+00 0.00000E+00 0.00000E+00
 -1         6 0.00000E+00 0.00000E+00 0.00000E+00
 -1         7 0.00000E+00 0.00000E+00 0.00000E+00
 -1         8 0.00000E+00 0.00000E+00 0.00000E+00
 -1        21 0.00000E+00 0.00000E+00 0.00000E+00
 -1        22 0.00000E+00 0.00000E+00 0.00000E+00
 -1        23 0.00000E+00 0.00000E+00 0.00000E+00
 -1        24 0.00000E+00 0.00000E+00 0.00000E+00
 -1        25 0.00000E+00 0.00000E+00 0.00000E+00
 -1        26 0.00000E+00 0.00000E+00 0.00000E+00
 -1        27 0.00000E+00 0.00000E+00 0.00000E+00
 -1        28 0.00000E+00 0.00000E+00 0.00000E+00
 -1        29 0.00000E+00 0.00000E+00 0.00000E+00
 -1        30 0.00000E+00 0.00000E+00 0.00000E+00
 -1        31 0.00000E+00 0.00000E+00 0.00000E+00
 -1        32 0.00000E+00 0.00000E+00 0.00000E+00
 -1        44-9.51734E-05 9.88561E-04-1.44003E-04
 -1        45-2.17463E-05 7.68105E-04-2.32192E-04
 -1        46 2.58745E-05 5.62363E-04-2.65433E-04
 -1        47-3.30152E-05 2.27796E-04-1.74810E-04
 -1        48 3.30387E-05 2.27802E-04-1.74841E-04
 -1        49-2.58343E-05 5.62358E-04-2.65482E-04
 -1        50 2.18684E-05 7.68114E-04-2.32232E-04
 -1        51 9.51672E-05 9.88622E-04-1.43992E-04
 -1        74 9.59650E-05 9.87258E-04 1.43946E-04
 -1        75 2.23702E-05 7.67446E-04 2.32286E-04
 -1        76-2.59583E-05 5.62597E-04 2.65515E-04
 -1        77 3.29115E-05 2.27994E-04 1.74836E-04
 -1        89-9.60196E-05 9.87177E-04 1.43983E-04
 -1        90-2.22485E-05 7.67446E-04 2.32254E-04
 -1        91 2.59937E-05 5.62594E-04 2.65477E-04
 -1        92-3.28880E-05 2.27987E-04 1.74810E-04
 -1        98 0.00000E+00 0.00000E+00 0.00000E+00
 -1        99 0.00000E+00 0.00000E+00 0.00000E+00
 -1       100 0.00000E+00 0.00000E+00 0.00000E+00
 -1       101 0.00000E+00 0.00000E+00 0.00000E+00
 -1       102 0.00000E+00 0.00000E+00 0.00000E+00
 -1       124 3.33482E-06 9.10398E-04-1.35772E-04
 -1       125 7.51586E-08 1.08743E-03-1.42458E-04
 -1       126-3.24880E-06 9.10372E-04-1.35687E-04
 -1       127 2.86791E-08 8.00942E-04-2.56294E-04
 -1       128-2.11928E-06 5.89641E-04-2.85062E-04
 -1       129 4.10510E-08 5.46704E-04-2.90632E-04
 -1       130 2.17698E-06 5.89642E-04-2.85058E-04
 -1       131 8.12314E-09 2.30852E-04-1.69710E-04
 -1       153 7.87448E-05 1.18196E-03-6.39926E-05
 -1       154-3.39849E-08 1.04804E-03-4.32936E-09
 -1       155-7.88956E-05 1.18049E-03 6.39858E-05
 -1       156-3.96366E-08 8.65042E-04-5.18933E-08
 -1       157-1.58494E-05 4.88086E-04-1.14263E-04
 -1       158 1.80340E-08 4.98737E-04-7.90683E-09
 -1       159 1.59088E-05 4.88383E-04 1.14313E-04
 -1       160 4.95059E-08 1.89259E-04 1.96433E-08
 -1       182 4.69619E-06 9.10980E-04 1.35795E-04
 -1       183 6.31868E-08 1.08668E-03 1.42554E-04
 -1       184-4.64294E-06 9.10943E-04 1.35735E-04
 -1       185 2.90030E-08 8.00745E-04 2.56397E-04
 -1       186-2.40307E-06 5.89531E-04 2.85055E-04
 -1       187 4.16407E-08 5.46969E-04 2.90658E-04
 -1       188 2.45865E-06 5.89527E-04 2.85055E-04
 -1       189 7.74714E-09 2.30902E-04 1.69716E-04
 -1       211 7.88746E-05 1.18044E-03 6.40492E-05
 -1       212 3.80390E-08 1.04805E-03 1.26952E-08
 -1       213-7.87340E-05 1.18201E-03-6.39879E-05
 -1       214 1.78072E-07 8.65030E-04-7.50030E-08
 -1       215-1.58800E-05 4.88388E-04 1.14267E-04
 -1       216 6.51752E-09 4.98742E-04-4.81105E-08
 -1       217 1.58794E-05 4.88083E-04-1.14306E-04
 -1       218-2.27983E-08 1.89258E-04-1.31262E-08
 -1       250 1.03043E-07 1.17191E-03-6.35394E-05
 -1       251 6.69910E-07 7.43374E-04-3.70125E-08
 -1       252 1.27326E-07 9.47500E-04 3.60251E-08
 -1       253-5.39275E-07 7.43364E-04 3.61446E-08
 -1       254 9.66071E-08 1.17278E-03 6.35477E-05
 -1       255 2.98270E-08 8.47070E-04 6.83238E-09
 -1       256 4.48878E-08 4.81450E-04-1.27646E-04
 -1       257-1.01218E-07 5.62566E-04 4.70429E-09
 -1       258 4.87999E-08 4.98364E-04-7.50933E-09
 -1       259 1.62880E-07 5.62564E-04 5.57244E-09
 -1       260 4.54741E-08 4.81308E-04 1.27647E-04
 -1       261 5.84499E-09 2.14162E-04-8.57470E-09
 -3
    1PSTEP                         5           5           1          
  100CL  105 2.50000E-02          81                     1    5           1
 -4  DISP        4    1
 -5  D1          1    2    1    0
 -5  D2          1    2    2    0
 -5  D3          1    2    3    0
 -5  ALL         1    2    0    0    1ALL
 -1         5 0.00000E+00 0.00000E+00 0.00000E+00
 -1         6 0.00000E+00 0.00000E+00 0.00000E+00
 -1         7 0.00000E+00 0.00000E+00 0.00000E+00
 -1         8 0.00000E+00 0.00000E+00 0.00000E+00
 -1        21 0.00000E+00 0.00000E+00 0.00000E+00
 -1        22 0.00000E+00 0.00000E+00 0.00000E+00
 -1        23 0.00000E+00 0.00000E+00 0.00000E+00
 -1        24 0.00000E+00 0.00000E+00 0.00000E+00
 -1        25 0.00000E+00 0.00000E+00 0.00000E+00
 -1        26 0.00000E+00 0.00000E+00 0.00000E+00
 -1        27 0.00000E+00 0.00000E+00 0.00000E+00
 -1        28 0.00000E+00 0.00000E+00 0.00000E+00
 -1        29 0.00000E+00 0.00000E+00 0.00000E+00
 -1        30 0.00000E+00 0.00000E+00 0.00000E+00
 -1        31 0.00000E+00 0.00000E+00 0.00000E+00
 -1        32 0.00000E+00 0.00000E+00 0.00000E+00
 -1        44 7.25715E-05-7.44499E-04 1.08617E-04
 -1        45 1.70953E-05-5.78793E-04 1.75119E-04
 -1        46-1.98711E-05-4.24974E-04 2.00410E-04
 -1        47 2.47392E-05-1.72160E-04 1.31924E-04
 -1        48-2.47398E-05-1.72170E-04 1.31946E-04
 -1        49 1.98830E-05-4.24990E-04 2.00432E-04
 -1        50-1.72062E-05-5.78749E-04 1.75127E-04
 -1        51-7.27866E-05-7.44340E-04 1.08681E-04
 -1        74-7.16211E-05-7.45366E-04-1.08683E-04
 -1        75-1.65607E-05-5.79369E-04-1.75119E-04
 -1        76 1.94859E-05-4.24609E-04-2.00437E-04
 -1        77-2.49317E-05-1.71992E-04-1.31950E-04
 -1        89 7.14324E-05-7.45498E-04-1.08618E-04
 -1        90 1.64544E-05-5.79405E-04-1.75111E-04
 -1        91-1.94661E-05-4.24586E-04-2.00413E-04
 -1        92 2.49338E-05-1.71980E-04-1.31926E-04
 -1        98 0.00000E+00 0.00000E+00 0.00000E+00
 -1        99 0.00000E+00 0.00000E+00 0.00000E+00
 -1       100 0.00000E+00 0.00000E+00 0.00000E+00
 -1       101 0.00000E+00 0.00000E+00 0.00000E+00
 -1       102 0.00000E+00 0.00000E+00 0.00000E+00
 -1       124-2.66434E-06-6.87470E-04 1.02415E-04
 -1       125-1.35182E-07-8.20039E-04 1.07446E-04
 -1       126 2.45816E-06-6.87478E-04 1.02381E-04
 -1       127-2.36672E-08-6.04370E-04 1.93626E-04
 -1       128 1.68589E-06-4.44977E-04 2.15104E-04
 -1       129-2.61144E-08-4.12722E-04 2.19312E-04
 -1       130-1.71472E-06-4.44984E-04 2.15096E-04
 -1       131 4.34610E-09-1.74300E-04 1.28102E-04
 -1       153-5.94289E-05-8.90867E-04 4.82458E-05
 -1       154 1.76379E-07-7.89218E-04 1.34042E-08
 -1       155 5.88861E-05-8.90714E-04-4.83218E-05
 -1       156-1.22195E-08-6.52752E-04-9.79487E-08
 -1       157 1.18743E-05-3.68498E-04 8.62658E-05
 -1       158-3.27921E-08-3.76376E-04-4.08408E-08
 -1       159-1.18091E-05-3.68462E-04-8.62748E-05
 -1       160-4.27937E-09-1.42981E-04-2.70991E-09
 -1       182-2.59525E-06-6.87121E-04-1.02434E-04
 -1       183-1.30182E-07-8.20379E-04-1.07461E-04
 -1       184 2.40677E-06-6.87113E-04-1.02381E-04
 -1       185-1.56984E-08-6.04275E-04-1.93476E-04
 -1       186 1.61808E-06-4.45060E-04-2.15113E-04
 -1       187-2.53176E-08-4.12773E-04-2.19265E-04
 -1       188-1.64211E-06-4.45064E-04-2.15107E-04
 -1       189 5.89896E-09-1.74314E-04-1.28099E-04
 -1       211-5.90096E-05-8.90828E-04-4.82448E-05
 -1       212-3.35256E-07-7.89210E-04 2.11952E-08
 -1       213 5.92911E-05-8.90732E-04 4.83243E-05
 -1       214 8.17005E-09-6.52746E-04-4.65677E-08
 -1       215 1.17780E-05-3.68438E-04-8.62557E-05
 -1       216-2.82686E-08-3.76374E-04-1.00809E-08
 -1       217-1.19091E-05-3.68516E-04 8.62835E-05
 -1       218 2.19860E-09-1.42979E-04-6.15184E-09
 -1       250-4.12862E-08-8.84387E-04 4.78966E-05
 -1       251-1.95075E-07-5.61121E-04 2.00606E-09
 -1       252 7.39442E-08-7.15113E-04 1.55325E-08
 -1       253 1.72548E-07-5.61125E-04 6.33707E-08
 -1       254-3.95376E-08-8.84667E-04-4.79419E-05
 -1       255-3.86703E-08-6.38911E-04-1.43250E-09
 -1       256-3.20186E-09-3.63539E-04 9.63038E-05
 -1       257 1.15209E-08-4.24494E-04 1.29353E-08
 -1       258 1.53546E-08-3.76465E-04-3.25397E-09
 -1       259-1.97296E-08-4.24495E-04-1.80353E-08
 -1       260-2.58331E-09-3.63536E-04-9.63043E-05
 -1       261-1.03512E-08-1.61701E-04 6.68549E-10
 -3
    1PSTEP                         6           6           1          
  100CL  106 3.00000E-02          81                     1    6           1
 -4  DISP        4    1
 -5  D1          1    2    1    0
 -5  D2          1    2    2    0
 -5  D3          1    2    3    0
 -5  ALL         1    2    0    0    1ALL
 -1         5 0.00000E+00 0.00000E+00 0.00000E+00
 -1         6 0.00000E+00 0.00000E+00 0.00000E+00
 -1         7 0.00000E+00 0.00000E+00 0.00000E+00
 -1         8 0.00000E+00 0.00000E+00 0.00000E+00
 -1        21 0.00000E+00 0.00000E+00 0.00000E+00
 -1        22 0.00000E+00 0.00000E+00 0.00000E+00
 -1        23 0.00000E+00 0.00000E+00 0.00000E+00
 -1        24 0.00000E+00 0.00000E+00 0.00000E+00
 -1        25 0.00000E+00 0.00000E+00 0.00000E+00
 -1        26 0.00000E+00 0.00000E+00 0.00000E+00
 -1        27 0.00000E+00 0.00000E+00 0.00000E+00
 -1        28 0.00000E+00 0.00000E+00 0.00000E+00
 -1        29 0.00000E+00 0.00000E+00 0.00000E+00
 -1        30 0.00000E+00 0.00000E+00 0.00000E+00
 -1        31 0.00000E+00 0.00000E+00 0.00000E+00
 -1        32 0.00000E+00 0.00000E+00 0.00000E+00
 -1        44-5.34267E-05 5.38997E-04-7.87904E-05
 -1        45-1.27344E-05 4.19338E-04-1.27062E-04
 -1        46 1.46555E-05 3.08438E-04-1.45286E-04
 -1        47-1.78233E-05 1.25011E-04-9.57015E-05