    1C
    1UUSER                                                              
    1UDATE              15.july.2018                                    
    1UTIME              19:56:58                                        
    1UHOST                                                              
    1UPGM               CalculiX                                        
    1UVERSION           Version 2.13                             
    1UCOMPILETIME       jue jun 14 00:40:39 CEST 2018                    
    1UDIR                                                               
    1UDBN                                                               
    1UMAT    1EL                                                        
    2C                            81                                     1
 -1         5 0.00000E+00 0.00000E+00 8.00000E+00
 -1         6 1.00000E+00 0.00000E+00 8.00000E+00
 -1         7 1.00000E+00 1.00000E+00 8.00000E+00
 -1         8 0.00000E+00 1.00000E+00 8.00000E+00
 -1        21 2.50000E-01 0.00000E+00 8.00000E+00
 -1        22 5.00000E-01 0.00000E+00 8.00000E+00
 -1        23 7.50000E-01 0.00000E+00 8.00000E+00
 -1        24 1.00000E+00 2.50000E-01 8.00000E+00
 -1        25 1.00000E+00 5.00000E-01 8.00000E+00
 -1        26 1.00000E+00 7.50000E-01 8.00000E+00
 -1        27 7.50000E-01 1.00000E+00 8.00000E+00
 -1        28 5.00000E-01 1.00000E+00 8.00000E+00
 -1        29 2.50000E-01 1.00000E+00 8.00000E+00
 -1        30 0.00000E+00 7.50000E-01 8.00000E+00
 -1        31 0.00000E+00 5.00000E-01 8.00000E+00
 -1        32 0.00000E+00 2.50000E-01 8.00000E+00
 -1        44 1.00000E+00 0.00000E+00 6.00000E+00
 -1        45 1.00000E+00 0.00000E+00 6.50000E+00
 -1        46 1.00000E+00 0.00000E+00 7.00000E+00
 -1        47 1.00000E+00 0.00000E+00 7.50000E+00
 -1        48 0.00000E+00 0.00000E+00 7.50000E+00
 -1        49 0.00000E+00 0.00000E+00 7.00000E+00
 -1        50 0.00000E+00 0.00000E+00 6.50000E+00
 -1        51 0.00000E+00 0.00000E+00 6.00000E+00
 -1        74 1.00000E+00 1.00000E+00 6.00000E+00
 -1        75 1.00000E+00 1.00000E+00 6.50000E+00
 -1        76 1.00000E+00 1.00000E+00 7.00000E+00
 -1        77 1.00000E+00 1.00000E+00 7.50000E+00
 -1        89 0.00000E+00 1.00000E+00 6.00000E+00
 -1        90 0.00000E+00 1.00000E+00 6.50000E+00
 -1        91 0.00000E+00 1.00000E+00 7.00000E+00
 -1        92 0.00000E+00 1.00000E+00 7.50000E+00
 -1        98 5.00000E-01 2.50000E-01 8.00000E+00
 -1        99 2.50000E-01 5.00000E-01 8.00000E+00
 -1       100 5.00000E-01 5.00000E-01 8.00000E+00
 -1       101 7.50000E-01 5.00000E-01 8.00000E+00
 -1       102 5.00000E-01 7.50000E-01 8.00000E+00
 -1       124 2.50000E-01 0.00000E+00 6.00000E+00
 -1       125 5.00000E-01 0.00000E+00 6.00000E+00
 -1       126 7.50000E-01 0.00000E+00 6.00000E+00
 -1       127 5.00000E-01 0.00000E+00 6.50000E+00
 -1       128 2.50000E-01 0.00000E+00 7.00000E+00
 -1       129 5.00000E-01 0.00000E+00 7.00000E+00
 -1       130 7.50000E-01 0.00000E+00 7.00000E+00
 -1       131 5.00000E-01 0.00000E+00 7.50000E+00
 -1       153 1.00000E+00 2.50000E-01 6.00000E+00
 -1       154 1.00000E+00 5.00000E-01 6.00000E+00
 -1       155 1.00000E+00 7.50000E-01 6.00000E+00
 -1       156 1.00000E+00 5.00000E-01 6.50000E+00
 -1       157 1.00000E+00 2.50000E-01 7.00000E+00
 -1       158 1.00000E+00 5.00000E-01 7.00000E+00
 -1       159 1.00000E+00 7.50000E-01 7.00000E+00
 -1       160 1.00000E+00 5.00000E-01 7.50000E+00
 -1       182 7.50000E-01 1.00000E+00 6.00000E+00
 -1       183 5.00000E-01 1.00000E+00 6.00000E+00
 -1       184 2.50000E-01 1.00000E+00 6.00000E+00
 -1       185 5.00000E-01 1.00000E+00 6.50000E+00
 -1       186 7.50000E-01 1.00000E+00 7.00000E+00
 -1       187 5.00000E-01 1.00000E+00 7.00000E+00
 -1       188 2.50000E-01 1.00000E+00 7.00000E+00
 -1       189 5.00000E-01 1.00000E+00 7.50000E+00
 -1       211 0.00000E+00 7.50000E-01 6.00000E+00
 -1       212 0.00000E+00 5.00000E-01 6.00000E+00
 -1       213 0.00000E+00 2.50000E-01 6.00000E+00
 -1       214 0.00000E+00 5.00000E-01 6.50000E+00
 -1       215 0.00000E+00 7.50000E-01 7.00000E+00
 -1       216 0.00000E+00 5.00000E-01 7.00000E+00
 -1       217 0.00000E+00 2.50000E-01 7.00000E+00
 -1       218 0.00000E+00 5.00000E-01 7.50000E+00
 -1       250 5.00000E-01 2.50000E-01 6.00000E+00
 -1       251 2.50000E-01 5.00000E-01 6.00000E+00
 -1       252 5.00000E-01 5.00000E-01 6.00000E+00
 -1       253 7.50000E-01 5.00000E-01 6.00000E+00
 -1       254 5.00000E-01 7.50000E-01 6.00000E+00
 -1       255 5.00000E-01 5.00000E-01 6.50000E+00
 -1       256 5.00000E-01 2.50000E-01 7.00000E+00
 -1       257 2.50000E-01 5.00000E-01 7.00000E+00
 -1       258 5.00000E-01 5.00000E-01 7.00000E+00
 -1       259 7.50000E-01 5.00000E-01 7.00000E+00
 -1       260 5.00000E-01 7.50000E-01 7.00000E+00
 -1       261 5.00000E-01 5.00000E-01 7.50000E+00
 -3
    3C                             8                                     1
 -1        25    4    0    1
 -2        51       125       252       212        49       129       258       216       124       250
 -2       251       213        50       127       255       214       128       256       257       217
 -1        26    4    0    1
 -2       125        44       154       252       129        46       158       258       126       153
 -2       253       250       127        45       156       255       130       157       259       256
 -1        27    4    0    1
 -2       212       252       183        89       216       258       187        91       251       254
 -2       184       211       214       255       185        90       257       260       188       215
 -1        28    4    0    1
 -2       252       154        74       183       258       158        76       187       253       155
 -2       182       254       255       156        75       185       259       159       186       260
 -1        29    4    0    1
 -2        49       129       258       216         5        22       100        31       128       256
 -2       257       217        48       131       261       218        21        98        99        32
 -1        30    4    0    1
 -2       129        46       158       258        22         6        25       100       130       157
 -2       259       256       131        47       160       261        23        24       101        98
 -1        31    4    0    1
 -2       216       258       187        91        31       100        28         8       257       260
 -2       188       215       218       261       189        92        99       102        29        30
 -1        32    4    0    1
 -2       258       158        76       187       100        25         7        28       259       159
 -2       186       260       261       160        77       189       101        26        27       102
 -3
    1PSTEP                         1           1           1          
  100CL  101 5.00000E-03          81                     1    1           1
 -4  DISP        4    1
 -5  D1          1    2    1    0
 -5  D2          1    2    2    0
 -5  D3          1    2    3    0
 -5  ALL         1    2    0    0    1ALL
 -1         5 0.00000E+00 0.00000E+00 0.00000E+00
 -1         6 0.00000E+00 0.00000E+00 0.00000E+00
 -1         7 0.00000E+00 0.00000E+00 0.00000E+00
 -1         8 0.00000E+00 0.00000E+00 0.00000E+00
 -1        21 0.00000E+00 0.00000E+00 0.00000E+00
 -1        22 0.00000E+00 0.00000E+00 0.00000E+00
 -1        23 0.00000E+00 0.00000E+00 0.00000E+00
 -1        24 0.00000E+00 0.00000E+00 0.00000E+00
 -1        25 0.00000E+00 0.00000E+00 0.00000E+00
 -1        26 0.00000E+00 0.00000E+00 0.00000E+00
 -1        27 0.00000E+00 0.00000E+00 0.00000E+00
 -1        28 0.00000E+00 0.00000E+00 0.00000E+00
 -1        29 0.00000E+00 0.00000E+00 0.00000E+00
 -1        30 0.00000E+00 0.00000E+00 0.00000E+00
 -1        31 0.00000E+00 0.00000E+00 0.00000E+00
 -1        32 0.00000E+00 0.00000E+00 0.00000E+00
 -1        44-6.04528E-05-3.46578E-03 4.48520E-04
 -1        45 5.68078E-05-2.56237E-03 7.85632E-04
 -1        46-4.76525E-05-1.79542E-03 9.49247E-04
 -1        47 1.31051E-04-6.74888E-04 5.43103E-04
 -1        48-1.31040E-04-6.74882E-04 5.43087E-04
 -1        49 4.76869E-05-1.79542E-03 9.49216E-04
 -1        50-5.67330E-05-2.56236E-03 7.85589E-04
 -1        51 6.05717E-05-3.46578E-03 4.48475E-04
 -1        74 3.20126E-04-4.41389E-03-4.94374E-04
 -1        75 1.91764E-04-2.97306E-03-7.84511E-04
 -1        76-1.10732E-04-1.59696E-03-9.49938E-04
 -1        77-2.08058E-04-5.26350E-04-5.58139E-04
 -1        89-3.20007E-04-4.41388E-03-4.94419E-04
 -1        90-1.91689E-04-2.97306E-03-7.84554E-04
 -1        91 1.10766E-04-1.59696E-03-9.49970E-04
 -1        92 2.08069E-04-5.26355E-04-5.58155E-04
 -1        98 0.00000E+00 0.00000E+00 0.00000E+00
 -1        99 0.00000E+00 0.00000E+00 0.00000E+00
 -1       100 0.00000E+00 0.00000E+00 0.00000E+00
 -1       101 0.00000E+00 0.00000E+00 0.00000E+00
 -1       102 0.00000E+00 0.00000E+00 0.00000E+00
 -1       124 1.49248E-04-2.96608E-03 4.29498E-04
 -1       125 6.05760E-08-3.58930E-03 4.48885E-04
 -1       126-1.49128E-04-2.96607E-03 4.29522E-04
 -1       127 3.56114E-08-2.56228E-03 9.03740E-04
 -1       128-9.02433E-06-1.95280E-03 9.48131E-04
 -1       129 1.70944E-08-1.81462E-03 9.41428E-04
 -1       130 9.05796E-06-1.95280E-03 9.48146E-04
 -1       131 3.80669E-09-7.36457E-04 5.56367E-04
 -1       153 7.04482E-05-3.63507E-03 1.91102E-04
 -1       154-1.20236E-04-2.50187E-03-2.06003E-05
 -1       155-6.55871E-05-3.88855E-03-2.37918E-04
 -1       156-1.20392E-04-2.78933E-03-6.45299E-05
 -1       157-2.06346E-05-1.50886E-03 3.92405E-04
 -1       158 8.85524E-05-1.56677E-03-2.94665E-05
 -1       159 4.68843E-05-1.47533E-03-4.11055E-04
 -1       160 3.98804E-05-6.56547E-04 4.88880E-06
 -1       182 1.14994E-04-2.56175E-03-4.71047E-04
 -1       183 6.02009E-08-4.35583E-03-4.76201E-04
 -1       184-1.14874E-04-2.56175E-03-4.71070E-04
 -1       185 3.57910E-08-2.83316E-03-8.73702E-04
 -1       186-4.41625E-05-2.16245E-03-9.82617E-04
 -1       187 1.69541E-08-1.83165E-03-9.63644E-04
 -1       188 4.41961E-05-2.16245E-03-9.82632E-04
 -1       189 3.81924E-09-7.19869E-04-5.64506E-04
 -1       211 6.56977E-05-3.88854E-03-2.37966E-04
 -1       212 1.20339E-04-2.50187E-03-2.06420E-05
 -1       213-7.03373E-05-3.63507E-03 1.91054E-04
 -1       214 1.20476E-04-2.78933E-03-6.45699E-05
 -1       215-4.68511E-05-1.47533E-03-4.11086E-04
 -1       216-8.85224E-05-1.56677E-03-2.94992E-05
 -1       217 2.06676E-05-1.50886E-03 3.92374E-04
 -1       218-3.98672E-05-6.56546E-04 4.87033E-06
 -1       250 6.60474E-08-4.08269E-03 1.74721E-04
 -1       251 3.04736E-05-2.57210E-03-1.02068E-05
 -1       252 7.02454E-08-3.12373E-03-1.54239E-05
 -1       253-3.03531E-05-2.57210E-03-1.01691E-05
 -1       254 6.57149E-08-4.41362E-03-2.53884E-04
 -1       255 3.34071E-08-2.59895E-03-3.20230E-05
 -1       256 1.96480E-08-1.60735E-03 3.95600E-04
 -1       257-4.11765E-05-1.74921E-03-1.20069E-05
 -1       258 2.16909E-08-1.79051E-03-1.45469E-05
 -1       259 4.12129E-05-1.74921E-03-1.19946E-05
 -1       260 1.96092E-08-1.62248E-03-4.18217E-04
 -1       261 4.11547E-09-7.17070E-04-1.97449E-06
 -3
    1PSTEP                         2           2           1          
  100CL  102 1.00000E-02          81                     1    2           1
 -4  DISP        4    1
 -5  D1          1    2    1    0
 -5  D2          1    2    2    0
 -5  D3          1    2    3    0
 -5  ALL         1    2    0    0    1ALL
 -1         5 0.00000E+00 0.00000E+00 0.00000E+00
 -1         6 0.00000E+00 0.00000E+00 0.00000E+00
 -1         7 0.00000E+00 0.00000E+00 0.00000E+00
 -1         8 0.00000E+00 0.00000E+00 0.00000E+00
 -1        21 0.00000E+00 0.00000E+00 0.00000E+00
 -1        22 0.00000E+00 0.00000E+00 0.00000E+00
 -1        23 0.00000E+00 0.00000E+00 0.00000E+00
 -1        24 0.00000E+00 0.00000E+00 0.00000E+00
 -1        25 0.00000E+00 0.00000E+00 0.00000E+00
 -1        26 0.00000E+00 0.00000E+00 0.00000E+00
 -1        27 0.00000E+00 0.00000E+00 0.00000E+00
 -1        28 0.00000E+00 0.00000E+00 0.00000E+00
 -1        29 0.00000E+00 0.00000E+00 0.00000E+00
 -1        30 0.00000E+00 0.00000E+00 0.00000E+00
 -1        31 0.00000E+00 0.00000E+00 0.00000E+00
 -1        32 0.00000E+00 0.00000E+00 0.00000E+00
 -1        44-1.53372E-04 1.60644E-03-2.33992E-04
 -1        45-3.63931E-05 1.24807E-03-3.77188E-04
 -1        46 4.21164E-05 9.14509E-04-4.32274E-04
 -1        47-5.36532E-05 3.70187E-04-2.84051E-04
 -1        48 5.36607E-05 3.70183E-04-2.84050E-04
 -1        49-4.20806E-05 9.14493E-04-4.32272E-04
 -1        50 3.64036E-05 1.24807E-03-3.77238E-04
 -1        51 1.53483E-04 1.60646E-03-2.34088E-04
 -1        74 1.51205E-04 1.61333E-03 2.34251E-04
 -1        75 3.44877E-05 1.25113E-03 3.77119E-04
 -1        76-4.12759E-05 9.13269E-04 4.32235E-04
 -1        77 5.41881E-05 3.69168E-04 2.84132E-04
 -1        89-1.51174E-04 1.61318E-03 2.34155E-04
 -1        90-3.45223E-05 1.25112E-03 3.77091E-04
 -1        91 4.13031E-05 9.13238E-04 4.32233E-04
 -1        92-5.41956E-05 3.69166E-04 2.84142E-04
 -1        98 0.00000E+00 0.00000E+00 0.00000E+00
 -1        99 0.00000E+00 0.00000E+00 0.00000E+00
 -1       100 0.00000E+00 0.00000E+00 0.00000E+00
 -1       101 0.00000E+00 0.00000E+00 0.00000E+00
 -1       102 0.00000E+00 0.00000E+00 0.00000E+00
 -1       124 5.73342E-06 1.48022E-03-2.20511E-04
 -1       125 2.69400E-08 1.76815E-03-2.31334E-04
 -1       126-5.64935E-06 1.48022E-03-2.20511E-04
 -1       127 2.32659E-08 1.30178E-03-4.17577E-04
 -1       128-3.66610E-06 9.59012E-04-4.63501E-04
 -1       129 2.68135E-09 8.89423E-04-4.72359E-04
 -1       130 3.68475E-06 9.59018E-04-4.63491E-04
 -1       131 4.29676E-09 3.75388E-04-2.76027E-04
 -1       153 1.25491E-04 1.91508E-03-1.03877E-04
 -1       154 8.05935E-07 1.69274E-03 1.09456E-07
 -1       155-1.25369E-04 1.91949E-03 1.04119E-04
 -1       156 8.30709E-07 1.40617E-03 4.09087E-07
 -1       157-2.50408E-05 7.93421E-04-1.86014E-04
 -1       158-4.56873E-07 8.10227E-04 1.98856E-07
 -1       159 2.49147E-05 7.92659E-04 1.86112E-04
 -1       160-2.73597E-07 3.08358E-04-2.61623E-08
 -1       182 3.16079E-06 1.47734E-03 2.20722E-04
 -1       183-5.12707E-08 1.77347E-03 2.31486E-04
 -1       184-3.19033E-06 1.47729E-03 2.20702E-04
 -1       185 9.59079E-09 1.30352E-03 4.17326E-04
 -1       186-2.97884E-06 9.60261E-04 4.63674E-04
 -1       187-1.48461E-08 8.88993E-04 4.72418E-04
 -1       188 2.97526E-06 9.60242E-04 4.63665E-04
 -1       189 1.93073E-10 3.75205E-04 2.76054E-04
 -1       211 1.25407E-04 1.91942E-03 1.04123E-04
 -1       212-7.75261E-07 1.69276E-03 6.82980E-08
 -1       213-1.25395E-04 1.91512E-03-1.03933E-04
 -1       214-8.00628E-07 1.40614E-03 3.93833E-07
 -1       215-2.49036E-05 7.92650E-04 1.86093E-04
 -1       216 4.54732E-07 8.10234E-04 1.93180E-07
 -1       217 2.50535E-05 7.93414E-04-1.86022E-04
 -1       218 2.77033E-07 3.08351E-04-2.88260E-08
 -1       250 3.53069E-08 1.90953E-03-1.03136E-04
 -1       251-1.45284E-06 1.21005E-03 6.24058E-08
 -1       252 4.60585E-08 1.54117E-03 8.04390E-08
 -1       253 1.51102E-06 1.21003E-03 9.29717E-08
 -1       254-6.31146E-09 1.90930E-03 1.03467E-04
 -1       255 9.36080E-09 1.37469E-03 1.71162E-07
 -1       256 5.08104E-09 7.83348E-04-2.07283E-04
 -1       257 4.89429E-07 9.13908E-04 4.93804E-08
 -1       258 6.79824E-09 8.12666E-04 7.23248E-08
 -1       259-4.82699E-07 9.13906E-04 4.93891E-08
 -1       260-3.37457E-09 7.83750E-04 2.07417E-04
 -1       261-1.12785E-09 3.48612E-04 1.67755E-08
 -3
    1PSTEP                         3           3           1          
  100CL  103 1.50000E-02          81                     1    3           1
 -4  DISP        4    1
 -5  D1          1    2    1    0
 -5  D2          1    2    2    0
 -5  D3          1    2    3    0
 -5  ALL         1    2    0    0    1ALL
 -1         5 0.00000E+00 0.00000E+00 0.00000E+00
 -1         6 0.00000E+00 0.00000E+00 0.00000E+00
 -1         7 0.00000E+00 0.00000E+00 0.00000E+00
 -1         8 0.00000E+00 0.00000E+00 0.00000E+00
 -1        21 0.00000E+00 0.00000E+00 0.00000E+00
 -1        22 0.00000E+00 0.00000E+00 0.00000E+00
 -1        23 0.00000E+00 0.00000E+00 0.00000E+00
 -1        24 0.00000E+00 0.00000E+00 0.00000E+00
 -1        25 0.00000E+00 0.00000E+00 0.00000E+00
 -1        26 0.00000E+00 0.00000E+00 0.00000E+00
 -1        27 0.00000E+00 0.00000E+00 0.00000E+00
 -1        28 0.00000E+00 0.00000E+00 0.00000E+00
 -1        29 0.00000E+00 0.00000E+00 0.00000E+00
 -1        30 0.00000E+00 0.00000E+00 0.00000E+00
 -1        31 0.00000E+00 0.00000E+00 0.00000E+00
 -1        32 0.00000E+00 0.00000E+00 0.00000E+00
 -1        44 1.22444E-04-1.27203E-03 1.85402E-04
 -1        45 2.86323E-05-9.88774E-04 2.98790E-04
 -1        46-3.34514E-05-7.24489E-04 3.42108E-04
 -1        47 4.24802E-05-2.93444E-04 2.25101E-04
 -1        48-4.24847E-05-2.93432E-04 2.25085E-04
 -1        49 3.34348E-05-7.24469E-04 3.42098E-04
 -1        50-2.85624E-05-9.88797E-04 2.98787E-04
 -1        51-1.22288E-04-1.27217E-03 1.85357E-04
 -1        74-1.21776E-04-1.27370E-03-1.85386E-04
 -1        75-2.81194E-05-9.89489E-04-2.98737E-04
 -1        76 3.31449E-05-7.24036E-04-3.42063E-04
 -1        77-4.25979E-05-2.93215E-04-2.25094E-04
 -1        89 1.21973E-04-1.27353E-03-1.85433E-04
 -1        90 2.82074E-05-9.89446E-04-2.98739E-04
 -1        91-3.31481E-05-7.24044E-04-3.42074E-04
 -1        92 4.25996E-05-2.93220E-04-2.25110E-04
 -1        98 0.00000E+00 0.00000E+00 0.00000E+00
 -1        99 0.00000E+00 0.00000E+00 0.00000E+00
 -1       100 0.00000E+00 0.00000E+00 0.00000E+00
 -1       101 0.00000E+00 0.00000E+00 0.00000E+00
 -1       102 0.00000E+00 0.00000E+00 0.00000E+00
 -1       124-4.25155E-06-1.17256E-03 1.74671E-04
 -1       125 9.49282E-08-1.40009E-03 1.83318E-04
 -1       126 4.39178E-06-1.17255E-03 1.74692E-04
 -1       127 8.63395E-09-1.03109E-03 3.30395E-04
 -1       128 2.85009E-06-7.59565E-04 3.67089E-04
 -1       129 1.74946E-08-7.04560E-04 3.74194E-04
 -1       130-2.83303E-06-7.59561E-04 3.67094E-04
 -1       131-5.12948E-09-2.97493E-04 2.18651E-04
 -1       153-1.00396E-04-1.51896E-03 8.23748E-05
 -1       154-1.66512E-07-1.34513E-03-3.67168E-08
 -1       155 1.00430E-04-1.51918E-03-8.23536E-05
 -1       156-1.86333E-07-1.11411E-03-5.97022E-08
 -1       157 2.01210E-05-6.28637E-04 1.47290E-04
 -1       158 1.47889E-07-6.41990E-04-2.40909E-08
 -1       159-2.00928E-05-6.28569E-04-1.47284E-04
 -1       160 5.50977E-08-2.44044E-04 6.48121E-10
 -1       182-4.53686E-06-1.17191E-03-1.74692E-04
 -1       183 1.10860E-07-1.40122E-03-1.83304E-04
 -1       184 4.71277E-06-1.17189E-03-1.74702E-04
 -1       185 2.03508E-08-1.03141E-03-3.30312E-04
 -1       186 2.84316E-06-7.59751E-04-3.67101E-04
 -1       187 2.29792E-08-7.04395E-04-3.74178E-04
 -1       188-2.81400E-06-7.59741E-04-3.67106E-04
 -1       189-1.93151E-09-2.97404E-04-2.18635E-04
 -1       211-1.00364E-04-1.51904E-03-8.23903E-05
 -1       212 1.96321E-07-1.34511E-03 1.38376E-08
 -1       213 1.00442E-04-1.51907E-03 8.23511E-05
 -1       214 2.04102E-07-1.11410E-03-8.54090E-08
 -1       215 2.01161E-05-6.28580E-04-1.47295E-04
 -1       216-1.18160E-07-6.41983E-04-4.96980E-08
 -1       217-2.01045E-05-6.28614E-04 1.47278E-04
 -1       218-5.09616E-08-2.44041E-04-1.36521E-09
 -1       250 2.58416E-08-1.51089E-03 8.17632E-05
 -1       251-9.98267E-08-9.57728E-04 3.14593E-09
 -1       252-6.26308E-08-1.22080E-03-5.67617E-10
 -1       253 7.16434E-08-9.57737E-04-2.41780E-08
 -1       254 3.35775E-08-1.51165E-03-8.17706E-05
 -1       255 1.86191E-08-1.08983E-03-1.81388E-08
 -1       256 4.14937E-09-6.20485E-04 1.64267E-04
 -1       257-2.38656E-08-7.24322E-04-7.34337E-09
 -1       258-4.86241E-09-6.42951E-04-5.56886E-09
 -1       259 2.77051E-08-7.24325E-04 6.52368E-09
 -1       260 6.94211E-09-6.20356E-04-1.64279E-04
 -1       261 7.86716E-09-2.76042E-04-7.20581E-09
 -3
    1PSTEP                         4           4           1          
  100CL  104 2.00000E-02          81                     1    4           1
 -4  DISP        4    1
 -5  D1          1    2    1    0
 -5  D2          1    2    2    0
 -5  D3          1    2    3    0
 -5  ALL         1    2    0    0    1ALL
 -1         5 0.00000E+00 0.00000E+00 0.00000E+00
 -1         6 0.00000E+00 0.00000E+00 0.00000E+00
 -1         7 0.00000E+00 0.00000E+00 0.00000E+00
 -1         8 0.00000E+00 0.00000E+00 0.00000E+00
 -1        21 0.00000E+00 0.00000E+00 0.00000E+00
 -1        22 0.00000E+00 0.00000E+00 0.00000E+00
 -1        23 0.00000E+00 0.00000E+00 0.00000E+00
 -1        24 0.00000E+00 0.00000E+00 0.00000E+00
 -1        25 0.00000E+00 0.00000E+00 0.00000E+00
 -1        26 0.00000E+00 0.00000E+00 0.00000E+00
 -1        27 0.00000E+00 0.00000E+00 0.00000E+00
 -1        28 0.00000E+00 0.00000E+00 0.00000E+00
 -1        29 0.00000E+00 0.00000E+00 0.00000E+00
 -1        30 0.00000E+00 0.00000E+00 0.00000E+00
 -1        31 0.00000E+00 0.00000E+00 0.00000E+00
 -1        32 0.00000E+00 0.00000E+00 0.00000E+00
 -1        44-9.65349E-05 9.87237E-04-1.44195E-04
 -1        45-2.28598E-05 7.67404E-04-2.32191E-04
 -1        46 2.62593E-05 5.63214E-04-2.65824E-04
 -1        47-3.28277E-05 2.28103E-04-1.74921E-04
 -1        48 3.28198E-05 2.28106E-04-1.74941E-04
 -1        49-2.62880E-05 5.63218E-04-2.65843E-04
 -1        50 2.28990E-05 7.67386E-04-2.32154E-04
 -1        51 9.67841E-05 9.86957E-04-1.44219E-04
 -1        74 9.49922E-05 9.88969E-04 1.44251E-04
 -1        75 2.18862E-05 7.68410E-04 2.32177E-04
 -1        76-2.59168E-05 5.62859E-04 2.65853E-04
 -1        77 3.30907E-05 2.27815E-04 1.74936E-04
 -1        89-9.48220E-05 9.89109E-04 1.44213E-04
 -1        90-2.18622E-05 7.68455E-04 2.32235E-04
 -1        91 2.58885E-05 5.62815E-04 2.65827E-04
 -1        92-3.31072E-05 2.27814E-04 1.74924E-04
 -1        98 0.00000E+00 0.00000E+00 0.00000E+00
 -1        99 0.00000E+00 0.00000E+00 0.00000E+00
 -1       100 0.00000E+00 0.00000E+00 0.00000E+00
 -1       101 0.00000E+00 0.00000E+00 0.00000E+00
 -1       102 0.00000E+00 0.00000E+00 0.00000E+00
 -1       124 4.16933E-06 9.11320E-04-1.35870E-04
 -1       125 1.02627E-07 1.08811E-03-1.42531E-04
 -1       126-3.98828E-06 9.11387E-04-1.35895E-04
 -1       127 3.40836E-09 8.01591E-04-2.57044E-04
 -1       128-2.32331E-06 5.89957E-04-2.85308E-04
 -1       129 6.83376E-09 5.47041E-04-2.90889E-04
 -1       130 2.32694E-06 5.89971E-04-2.85292E-04
 -1       131-6.77197E-09 2.30933E-04-1.69842E-04
 -1       153 7.88956E-05 1.18027E-03-6.40422E-05
 -1       154-3.58726E-07 1.04596E-03-8.91237E-08
 -1       155-7.82691E-05 1.18234E-03 6.41101E-05
 -1       156 1.25415E-08 8.65763E-04 9.00495E-08
 -1       157-1.58116E-05 4.88426E-04-1.14446E-04
 -1       158 7.72454E-08 4.98620E-04 4.29328E-08
 -1       159 1.56873E-05 4.87976E-04 1.14422E-04
 -1       160-1.16322E-08 1.89447E-04 8.55681E-10
 -1       182 2.02228E-06 9.10768E-04 1.35918E-04
 -1       183 4.22145E-08 1.08900E-03 1.42563E-04
 -1       184-1.93526E-06 9.10764E-04 1.35892E-04
 -1       185-6.25141E-09 8.01597E-04 2.56891E-04
 -1       186-1.86653E-06 5.90118E-04 2.85333E-04
 -1       187 1.04727E-09 5.46856E-04 2.90833E-04
 -1       188 1.86382E-06 5.90111E-04 2.85323E-04
 -1       189-7.77499E-09 2.30938E-04 1.69837E-04
 -1       211 7.82898E-05 1.18248E-03 6.40620E-05
 -1       212 3.56352E-07 1.04600E-03 9.05282E-08
 -1       213-7.88128E-05 1.18010E-03-6.41517E-05
 -1       214-5.10297E-08 8.65732E-04 9.52667E-08
 -1       215-1.56815E-05 4.87953E-04 1.14431E-04
 -1       216-6.34437E-08 4.98639E-04 2.72665E-08
 -1       217 1.58137E-05 4.88447E-04-1.14420E-04
 -1       218 5.63062E-09 1.89442E-04 6.15209E-09
 -1       250 6.62740E-09 1.17450E-03-6.36509E-05
 -1       251-7.52068E-07 7.44002E-04 8.04620E-08
 -1       252-1.10178E-07 9.49105E-04 3.33785E-08
 -1       253 6.60674E-07 7.43974E-04-6.32824E-08
 -1       254-2.39970E-08 1.17321E-03 6.37228E-05
 -1       255 7.35915E-09 8.46905E-04-4.89874E-09
 -1       256-1.08450E-08 4.81731E-04-1.27710E-04
 -1       257 1.47306E-07 5.62742E-04-1.49241E-08
 -1       258-2.47160E-08 4.99236E-04 2.22482E-09
 -1       259-1.71783E-07 5.62735E-04 6.08306E-09
 -1       260-1.40211E-08 4.82017E-04 1.27727E-04
 -1       261 4.83502E-09 2.14297E-04 4.43164E-09
 -3
    1PSTEP                         5           5           1          
  100CL  105 2.50000E-02          81                     1    5           1
 -4  DISP        4    1
 -5  D1          1    2    1    0
 -5  D2          1    2    2    0
 -5  D3          1    2    3    0
 -5  ALL         1    2    0    0    1ALL
 -1         5 0.00000E+00 0.00000E+00 0.00000E+00
 -1         6 0.00000E+00 0.00000E+00 0.00000E+00
 -1         7 0.00000E+00 0.00000E+00 0.00000E+00
 -1         8 0.00000E+00 0.00000E+00 0.00000E+00
 -1        21 0.00000E+00 0.00000E+00 0.00000E+00
 -1        22 0.00000E+00 0.00000E+00 0.00000E+00
 -1        23 0.00000E+00 0.00000E+00 0.00000E+00
 -1        24 0.00000E+00 0.00000E+00 0.00000E+00
 -1        25 0.00000E+00 0.00000E+00 0.00000E+00
 -1        26 0.00000E+00 0.00000E+00 0.00000E+00
 -1        27 0.00000E+00 0.00000E+00 0.00000E+00
 -1        28 0.00000E+00 0.00000E+00 0.00000E+00
 -1        29 0.00000E+00 0.00000E+00 0.00000E+00
 -1        30 0.00000E+00 0.00000E+00 0.00000E+00
 -1        31 0.00000E+00 0.00000E+00 0.00000E+00
 -1        32 0.00000E+00 0.00000E+00 0.00000E+00
 -1        44 7.18957E-05-7.45205E-04 1.08633E-04
 -1        45 1.67857E-05-5.79317E-04 1.75085E-04
 -1        46-1.96431E-05-4.24584E-04 2.00439E-04
 -1        47 2.48816E-05-1.71971E-04 1.31906E-04
 -1        48-2.48815E-05-1.71966E-04 1.31892E-04
 -1        49 1.96425E-05-4.24578E-04 2.00426E-04
 -1        50-1.67198E-05-5.79342E-04 1.75083E-04
 -1        51-7.17204E-05-7.45358E-04 1.08596E-04
 -1        74-7.12497E-05-7.46016E-04-1.08587E-04
 -1        75-1.64090E-05-5.79698E-04-1.75068E-04
 -1        76 1.93445E-05-4.24253E-04-2.00420E-04
 -1        77-2.49786E-05-1.71850E-04-1.31895E-04
 -1        89 7.14034E-05-7.45895E-04-1.08632E-04
 -1        90 1.64642E-05-5.79678E-04-1.75072E-04
 -1        91-1.93508E-05-4.24269E-04-2.00430E-04
 -1        92 2.49756E-05-1.71858E-04-1.31906E-04
 -1        98 0.00000E+00 0.00000E+00 0.00000E+00
 -1        99 0.00000E+00 0.00000E+00 0.00000E+00
 -1       100 0.00000E+00 0.00000E+00 0.00000E+00
 -1       101 0.00000E+00 0.00000E+00 0.00000E+00
 -1       102 0.00000E+00 0.00000E+00 0.00000E+00
 -1       124-2.24488E-06-6.87142E-04 1.02350E-04
 -1       125 8.66005E-08-8.20240E-04 1.07413E-04
 -1       126 2.39181E-06-6.87116E-04 1.02354E-04
 -1       127 1.77006E-08-6.04152E-04 1.93578E-04
 -1       128 1.63874E-06-4.45039E-04 2.15094E-04
 -1       129 1.56159E-08-4.12819E-04 2.19271E-04
 -1       130-1.61704E-06-4.45031E-04 2.15102E-04
 -1       131-1.76461E-09-1.74326E-04 1.28114E-04
 -1       153-5.89367E-05-8.90525E-04 4.82848E-05
 -1       154 5.98366E-08-7.88781E-04-2.08356E-08
 -1       155 5.88551E-05-8.89980E-04-4.82459E-05
 -1       156-4.80638E-08-6.52904E-04-2.49685E-08
 -1       157 1.18356E-05-3.68303E-04 8.62980E-05
 -1       158 7.35503E-08-3.76131E-04-7.08244E-09
 -1       159-1.17830E-05-3.68367E-04-8.62879E-05
 -1       160 1.06397E-08-1.42942E-04-3.23965E-09
 -1       182-2.98561E-06-6.86865E-04-1.02353E-04
 -1       183 7.55489E-08-8.20619E-04-1.07413E-04
 -1       184 3.11099E-06-6.86855E-04-1.02359E-04
 -1       185 1.25284E-08-6.04181E-04-1.93501E-04
 -1       186 1.72119E-06-4.45102E-04-2.15097E-04
 -1       187 1.27134E-08-4.12846E-04-2.19247E-04
 -1       188-1.70531E-06-4.45099E-04-2.15104E-04
 -1       189-3.27785E-09-1.74301E-04-1.28102E-04
 -1       211-5.88047E-05-8.89887E-04-4.82715E-05
 -1       212-3.71708E-08-7.88785E-04 2.84395E-08
 -1       213 5.90004E-05-8.90637E-04 4.82427E-05
 -1       214 6.79445E-08-6.52913E-04-4.54431E-08
 -1       215 1.17990E-05-3.68383E-04-8.62981E-05
 -1       216-5.15147E-08-3.76132E-04-2.98157E-08
 -1       217-1.18171E-05-3.68293E-04 8.62898E-05
 -1       218-6.88953E-09-1.42944E-04-7.01341E-09
 -1       250 2.81581E-08-8.85008E-04 4.78965E-05
 -1       251-4.21522E-07-5.61003E-04 1.71157E-08
 -1       252-4.43095E-08-7.15536E-04 1.30111E-08
 -1       253 4.04049E-07-5.61002E-04-5.89182E-09
 -1       254 2.29457E-08-8.85921E-04-4.78976E-05
 -1       255 1.56972E-08-6.38765E-04-3.74430E-09
 -1       256 5.08301E-09-3.63566E-04 9.62635E-05
 -1       257 5.90376E-08-4.24468E-04-4.73431E-09
 -1       258-2.43427E-09-3.76586E-04-1.16587E-09
 -1       259-5.53174E-08-4.24468E-04 6.71699E-09
 -1       260 3.56570E-09-3.63416E-04-9.62648E-05
 -1       261 5.93003E-09-1.61701E-04-1.82732E-09
 -3
    1PSTEP                         6           6           1          
  100CL  106 3.00000E-02          81                     1    6           1
 -4  DISP        4    1
 -5  D1          1    2    1    0
 -5  D2          1    2    2    0
 -5  D3          1    2    3    0
 -5  ALL         1    2    0    0    1ALL
 -1         5 0.00000E+00 0.00000E+00 0.00000E+00
 -1         6 0.00000E+00 0.00000E+00 0.00000E+00
 -1         7 0.00000E+00 0.00000E+00 0.00000E+00
 -1         8 0.00000E+00 0.00000E+00 0.00000E+00
 -1        21 0.00000E+00 0.00000E+00 0.00000E+00
 -1        22 0.00000E+00 0.00000E+00 0.00000E+00
 -1        23 0.00000E+00 0.00000E+00 0.00000E+00
 -1        24 0.00000E+00 0.00000E+00 0.00000E+00
 -1        25 0.00000E+00 0.00000E+00 0.00000E+00
 -1        26 0.00000E+00 0.00000E+00 0.00000E+00
 -1        27 0.00000E+00 0.00000E+00 0.00000E+00
 -1        28 0.00000E+00 0.00000E+00 0.00000E+00
 -1        29 0.00000E+00 0.00000E+00 0.00000E+00
 -1        30 0.00000E+00 0.00000E+00 0.00000E+00
 -1        31 0.00000E+00 0.00000E+00 0.00000E+00
 -1        32 0.00000E+00 0.00000E+00 0.00000E+00
 -1        44-5.15067E-05 5.41285E-04-7.87565E-05
 -1        45-1.18445E-05 4.20490E-04-1.26927E-04
 -1        46 1.39958E-05 3.07576E-04-1.45356E-04
 -1        47-1.81404E-05 1.24556E-04-9.56352E-05