
 displacements (vx,vy,vz) for set NALL and time  0.5000000E-02

         5  0.000000E+00  0.000000E+00  0.000000E+00
         6  0.000000E+00  0.000000E+00  0.000000E+00
         7  0.000000E+00  0.000000E+00  0.000000E+00
         8  0.000000E+00  0.000000E+00  0.000000E+00
        21  0.000000E+00  0.000000E+00  0.000000E+00
        22  0.000000E+00  0.000000E+00  0.000000E+00
        23  0.000000E+00  0.000000E+00  0.000000E+00
        24  0.000000E+00  0.000000E+00  0.000000E+00
        25  0.000000E+00  0.000000E+00  0.000000E+00
        26  0.000000E+00  0.000000E+00  0.000000E+00
        27  0.000000E+00  0.000000E+00  0.000000E+00
        28  0.000000E+00  0.000000E+00  0.000000E+00
        29  0.000000E+00  0.000000E+00  0.000000E+00
        30  0.000000E+00  0.000000E+00  0.000000E+00
        31  0.000000E+00  0.000000E+00  0.000000E+00
        32  0.000000E+00  0.000000E+00  0.000000E+00
        44 -6.047986E-05 -3.466353E-03  4.484878E-04
        45  5.672505E-05 -2.562634E-03  7.857310E-04
        46 -4.750754E-05 -1.795440E-03  9.494147E-04
        47  1.310395E-04 -6.749268E-04  5.432041E-04
        48 -1.310250E-04 -6.749155E-04  5.431755E-04
        49  4.758614E-05 -1.795422E-03  9.493490E-04
        50 -5.658269E-05 -2.562630E-03  7.856097E-04
        51  6.083651E-05 -3.466295E-03  4.482710E-04
        74  3.205355E-04 -4.414404E-03 -4.944371E-04
        75  1.919162E-04 -2.973380E-03 -7.849396E-04
        76 -1.107624E-04 -1.596915E-03 -9.498764E-04
        77 -2.080742E-04 -5.263970E-04 -5.581328E-04
        89 -3.201803E-04 -4.414460E-03 -4.946514E-04
        90 -1.917734E-04 -2.973384E-03 -7.850604E-04
        91  1.108405E-04 -1.596932E-03 -9.499422E-04
        92  2.080888E-04 -5.264084E-04 -5.581616E-04
        98  0.000000E+00  0.000000E+00  0.000000E+00
        99  0.000000E+00  0.000000E+00  0.000000E+00
       100  0.000000E+00  0.000000E+00  0.000000E+00
       101  0.000000E+00  0.000000E+00  0.000000E+00
       102  0.000000E+00  0.000000E+00  0.000000E+00
       124  1.488847E-04 -2.966263E-03  4.296213E-04
       125  1.311469E-07 -3.589038E-03  4.485354E-04
       126 -1.485823E-04 -2.966284E-03  4.296919E-04
       127  8.622618E-08 -2.562340E-03  9.035469E-04
       128 -8.925999E-06 -1.952863E-03  9.481675E-04
       129  2.301816E-08 -1.814776E-03  9.415508E-04
       130  8.987378E-06 -1.952873E-03  9.482088E-04
       131  5.047488E-09 -7.364678E-04  5.563951E-04
       153  7.048373E-05 -3.635795E-03  1.913330E-04
       154 -1.200918E-04 -2.503288E-03 -2.082311E-05
       155 -6.552038E-05 -3.889460E-03 -2.378186E-04
       156 -1.203077E-04 -2.789203E-03 -6.457315E-05
       157 -2.056504E-05 -1.509124E-03  3.924128E-04
       158  8.851611E-05 -1.567162E-03 -2.945169E-05
       159  4.689225E-05 -1.475515E-03 -4.110768E-04
       160  3.986899E-05 -6.565397E-04  4.897913E-06
       182  1.148018E-04 -2.562099E-03 -4.710274E-04
       183  1.316642E-07 -4.355602E-03 -4.765343E-04
       184 -1.144998E-04 -2.562119E-03 -4.710978E-04
       185  8.608081E-08 -2.833089E-03 -8.736438E-04
       186 -4.405818E-05 -2.162501E-03 -9.827028E-04
       187  2.315633E-08 -1.831920E-03 -9.637579E-04
       188  4.411951E-05 -2.162511E-03 -9.827438E-04
       189  5.014248E-09 -7.199189E-04 -5.645283E-04
       211  6.591378E-05 -3.889486E-03 -2.380163E-04
       212  1.205100E-04 -2.503288E-03 -2.103933E-05
       213 -7.008916E-05 -3.635769E-03  1.911352E-04
       214  1.204440E-04 -2.789203E-03 -6.469836E-05
       215 -4.680499E-05 -1.475524E-03 -4.111469E-04
       216 -8.842115E-05 -1.567162E-03 -2.951743E-05
       217  2.065242E-05 -1.509115E-03  3.923424E-04
       218 -3.985057E-05 -6.565397E-04  4.876320E-06
       250  1.301152E-07 -4.082343E-03  1.744588E-04
       251  3.077064E-05 -2.572311E-03 -1.042408E-05
       252  1.277718E-07 -3.122893E-03 -1.531742E-05
       253 -3.044307E-05 -2.572311E-03 -1.038650E-05
       254  1.302693E-07 -4.413250E-03 -2.541077E-04
       255  9.483181E-08 -2.599427E-03 -3.193220E-05
       256  2.214774E-08 -1.607255E-03  3.956611E-04
       257 -4.117373E-05 -1.749304E-03 -1.202114E-05
       258  1.990273E-08 -1.790256E-03 -1.459430E-05
       259  4.124024E-05 -1.749304E-03 -1.197278E-05
       260  2.224358E-08 -1.622442E-03 -4.182642E-04
       261  8.950160E-09 -7.170914E-04 -2.006272E-06

 forces (fx,fy,fz) for set NALL and time  0.5000000E-02

         5  2.290553E+00 -4.176918E+00 -1.103653E+00
         6 -2.290785E+00 -4.176816E+00 -1.103891E+00
         7  3.456119E+00  1.088780E+00  1.268279E+00
         8 -3.456350E+00  1.088882E+00  1.268511E+00
        21 -2.774055E+00  5.574667E+00 -1.789693E+01
        22 -1.518012E-05 -9.891360E+00 -6.615279E-01
        23  2.774366E+00  5.575056E+00 -1.789718E+01
        24 -4.634787E+00  1.710896E+01 -1.021896E+01
        25  8.544131E-01 -1.150790E+01 -4.624599E-01
        26  2.147007E+00  1.341616E+01  1.050507E+01
        27 -1.809706E+00 -4.509100E-01  1.759791E+01
        28 -1.953862E-05 -1.600118E+00  1.779691E+00
        29  1.810021E+00 -4.505319E-01  1.759817E+01
        30 -2.147709E+00  1.341621E+01  1.050588E+01
        31 -8.550324E-01 -1.150789E+01 -4.618240E-01
        32  4.634076E+00  1.710890E+01 -1.021816E+01
        44  1.888083E+00  5.186663E+01  1.431844E+00
        45 -7.131320E-06 -6.080380E-01  1.525634E-01
        46  5.450899E-06  1.541473E+00 -4.634098E-01
        47 -1.911845E-06 -1.167011E+00  5.403038E-01
        48  2.089461E-06 -1.167010E+00  5.403044E-01
        49 -4.880347E-06  1.541474E+00 -4.634100E-01
        50  5.313677E-06 -6.080403E-01  1.525630E-01
        51 -1.887473E+00  5.186692E+01  1.430881E+00
        74 -7.350403E+00  1.753613E+01 -9.849997E-01
        75  6.456164E-07 -6.081234E-01 -1.525356E-01
        76 -1.637873E-06  1.541534E+00  4.634018E-01
        77  4.014525E-06 -1.167024E+00 -5.403001E-01
        89  7.351023E+00  1.753582E+01 -9.859309E-01
        90 -3.467973E-06 -6.081198E-01 -1.525355E-01
        91  2.119441E-06  1.541534E+00  4.634019E-01
        92 -3.430539E-06 -1.167026E+00 -5.403000E-01
        98  4.925147E-04  3.799225E+01 -1.717559E+01
        99 -2.345401E-01 -7.610213E+00  6.554514E-01
       100  1.632613E-04 -2.291348E+01 -3.857083E-01
       101  2.350397E-01 -7.610218E+00  6.553052E-01
       102  4.849365E-04  3.528081E+01  1.649949E+01
       124  1.697011E+01  1.974145E+01 -6.079554E-01
       125  2.438384E-04  1.115163E+02  2.963449E+00
       126 -1.697110E+01  1.974100E+01 -6.089081E-01
       127  4.398331E-07 -1.216077E+00  3.051177E-01
       128  4.557335E-06 -2.615777E+00  9.358650E-01
       129 -1.977918E-07  3.082946E+00 -9.268166E-01
       130 -5.016810E-06 -2.615776E+00  9.358641E-01
       131  5.295598E-07 -2.334021E+00  1.080606E+00
       153  1.156460E+01 -1.326501E+02 -2.296377E+00
       154 -2.862291E+00  9.850512E+01  4.337052E-01
       155  4.072110E+00 -1.082079E+02  1.406250E+00
       156 -1.171618E-05 -1.216153E+00 -2.478955E-05
       157 -7.607188E-06 -2.615785E+00  7.018891E-01
       158  5.803694E-06  3.083006E+00  1.159796E-05
       159 -1.389676E-07 -2.615848E+00 -7.018921E-01
       160 -1.208059E-06 -2.334038E+00 -3.363793E-06
       182  7.920555E+00  6.537801E+01  4.143162E-01
       183  2.590034E-04  5.158816E+01 -1.382679E+00
       184 -7.921565E+00  6.537759E+01  4.152397E-01
       185  1.291342E-06 -6.742573E+00 -3.050653E-01
       186  2.521116E-06 -8.142179E+00 -9.358385E-01
       187 -4.799298E-07 -2.443243E+00  9.268048E-01
       188 -2.878683E-06 -8.142177E+00 -9.358381E-01
       189  4.008568E-07 -7.860373E+00 -1.080595E+00
       211 -4.071113E+00 -1.082078E+02  1.405994E+00
       212  2.863959E+00  9.850508E+01  4.314678E-01
       213 -1.156357E+01 -1.326501E+02 -2.296602E+00
       214  9.290951E-06 -1.216154E+00 -2.298063E-05
       215 -1.520319E-06 -2.615846E+00 -7.018923E-01
       216 -4.644100E-06  3.083005E+00  1.076122E-05
       217  6.236489E-06 -2.615787E+00  7.018893E-01
       218  5.972364E-07 -2.334038E+00 -4.638784E-06
       250 -8.484271E-04 -2.938678E+02 -5.877197E+00
       251  5.270658E+00  8.827918E+01  5.395411E-01
       252  4.177243E-04  2.056988E+02  1.341426E+00
       253 -5.272539E+00  8.827916E+01  5.361903E-01
       254 -8.416968E-04 -2.683640E+02  1.542470E+00
       255  3.291430E-06 -2.432314E+00 -6.072733E-05
       256  8.448358E-07 -5.231571E+00  1.403768E+00
       257  7.240944E-06 -5.231633E+00 -2.667987E-05
       258 -6.528154E-07  6.166016E+00  2.392870E-05
       259 -6.920875E-06 -5.231632E+00 -2.695525E-05
       260  1.693363E-06 -5.231707E+00 -1.403780E+00
       261 -4.982063E-07 -4.668080E+00 -9.360839E-06

 displacements (vx,vy,vz) for set NALL and time  0.1000000E-01

         5  0.000000E+00  0.000000E+00  0.000000E+00
         6  0.000000E+00  0.000000E+00  0.000000E+00
         7  0.000000E+00  0.000000E+00  0.000000E+00
         8  0.000000E+00  0.000000E+00  0.000000E+00
        21  0.000000E+00  0.000000E+00  0.000000E+00
        22  0.000000E+00  0.000000E+00  0.000000E+00
        23  0.000000E+00  0.000000E+00  0.000000E+00
        24  0.000000E+00  0.000000E+00  0.000000E+00
        25  0.000000E+00  0.000000E+00  0.000000E+00
        26  0.000000E+00  0.000000E+00  0.000000E+00
        27  0.000000E+00  0.000000E+00  0.000000E+00
        28  0.000000E+00  0.000000E+00  0.000000E+00
        29  0.000000E+00  0.000000E+00  0.000000E+00
        30  0.000000E+00  0.000000E+00  0.000000E+00
        31  0.000000E+00  0.000000E+00  0.000000E+00
        32  0.000000E+00  0.000000E+00  0.000000E+00
        44 -1.558197E-04  1.603091E-03 -2.339640E-04
        45 -3.788318E-05  1.245668E-03 -3.774248E-04
        46  4.325625E-05  9.163551E-04 -4.323087E-04
        47 -5.313610E-05  3.708867E-04 -2.840050E-04
        48  5.315438E-05  3.709105E-04 -2.840537E-04
        49 -4.321341E-05  9.163733E-04 -4.323808E-04
        50  3.811581E-05  1.245660E-03 -3.775223E-04
        51  1.562037E-04  1.602940E-03 -2.340937E-04
        74  1.423690E-04  1.618577E-03  2.342784E-04
        75  2.996119E-05  1.254361E-03  3.775841E-04
        76 -3.831971E-05  9.114154E-04  4.324328E-04
        77  5.559338E-05  3.682652E-04  2.841227E-04
        89 -1.419836E-04  1.618774E-03  2.341779E-04
        90 -2.971159E-05  1.254386E-03  3.774940E-04
        91  3.837409E-05  9.114137E-04  4.323663E-04
        92 -5.556936E-05  3.682456E-04  2.840758E-04
        98  0.000000E+00  0.000000E+00  0.000000E+00
        99  0.000000E+00  0.000000E+00  0.000000E+00
       100  0.000000E+00  0.000000E+00  0.000000E+00
       101  0.000000E+00  0.000000E+00  0.000000E+00
       102  0.000000E+00  0.000000E+00  0.000000E+00
       124  5.298152E-06  1.482504E-03 -2.205764E-04
       125  2.327080E-07  1.765056E-03 -2.312962E-04
       126 -4.907893E-06  1.482513E-03 -2.205044E-04
       127  8.116451E-08  1.301688E-03 -4.179308E-04
       128 -3.742828E-06  9.585862E-04 -4.635562E-04
       129  5.295950E-08  8.895121E-04 -4.725887E-04
       130  3.823915E-06  9.585912E-04 -4.635230E-04
       131  1.740935E-09  3.755384E-04 -2.760768E-04
       153  1.267343E-04  1.917761E-03 -1.037871E-04
       154 -1.984875E-06  1.696122E-03  1.171455E-07
       155 -1.218239E-04  1.920323E-03  1.041671E-04
       156  6.967573E-07  1.407353E-03  1.128138E-06
       157 -2.535388E-05  7.933129E-04 -1.860317E-04
       158 -2.256594E-07  8.095128E-04  4.555413E-07
       159  2.426948E-05  7.922297E-04  1.861087E-04
       160 -1.351600E-07  3.079735E-04  4.593317E-08
       182  3.293839E-06  1.476757E-03  2.207474E-04
       183  2.349692E-07  1.772359E-03  2.316264E-04
       184 -2.899062E-06  1.476792E-03  2.206972E-04
       185  9.283272E-08  1.301922E-03  4.163430E-04
       186 -2.576586E-06  9.604496E-04  4.638077E-04
       187  5.765127E-08  8.900460E-04  4.720956E-04
       188  2.668129E-06  9.604620E-04  4.637780E-04
       189  4.664129E-09  3.756610E-04  2.760301E-04
       211  1.221384E-04  1.920469E-03  1.040451E-04
       212  2.313440E-06  1.696135E-03 -1.577680E-08
       213 -1.264197E-04  1.917650E-03 -1.039404E-04
       214 -5.303354E-07  1.407360E-03  1.001520E-06
       215 -2.417553E-05  7.922217E-04  1.860310E-04
       216  3.386814E-07  8.095183E-04  3.681853E-07
       217  2.544202E-05  7.933350E-04 -1.861079E-04
       218  1.630809E-07  3.079765E-04  1.275952E-08
       250  1.615969E-07  1.908293E-03 -1.029466E-04
       251  1.151887E-06  1.208641E-03 -9.030577E-08
       252  6.724089E-08  1.544868E-03  1.117202E-07
       253 -9.063703E-07  1.208634E-03 -2.960388E-08
       254  1.608367E-07  1.911667E-03  1.036253E-04
       255  9.389054E-08  1.376340E-03  1.290281E-07
       256  4.022406E-08  7.832323E-04 -2.073041E-04
       257  1.905100E-07  9.142729E-04  2.813899E-08
       258  3.114615E-08  8.115977E-04  7.424200E-08
       259 -1.095724E-07  9.142705E-04  7.342017E-08
       260  4.310928E-08  7.834884E-04  2.074483E-04
       261  1.718757E-08  3.481193E-04 -2.978678E-09

 forces (fx,fy,fz) for set NALL and time  0.1000000E-01

         5 -1.681660E+00  4.085612E-01  9.233920E-01
         6  1.681457E+00  4.087704E-01  9.234926E-01
         7 -1.639854E+00  3.472120E-01 -9.240243E-01
         8  1.639671E+00  3.473949E-01 -9.240748E-01
        21  1.057887E+00 -1.667294E+00  8.960649E+00
        22 -6.053558E-04  7.593756E-01  1.403936E+00
        23 -1.056963E+00 -1.666679E+00  8.959911E+00
        24  1.164030E+00 -5.929455E+00  4.714122E+00
        25  3.314945E-02  2.432757E+00  1.203153E-02
        26 -1.194549E+00 -5.858881E+00 -4.724115E+00
        27  9.978563E-01 -1.613089E+00 -8.951718E+00
        28 -5.905304E-04  6.642675E-01 -1.429079E+00
        29 -9.969954E-01 -1.612554E+00 -8.951035E+00
        30  1.194341E+00 -5.859659E+00 -4.723143E+00
        31 -3.366714E-02  2.432766E+00  1.203355E-02
        32 -1.164204E+00 -5.928680E+00  4.715136E+00
        44 -6.252283E+00 -1.528807E+01 -7.525396E-01
        45  6.107699E-06  5.208353E-01 -1.306833E-01
        46 -4.673521E-06 -1.320401E+00  3.969495E-01
        47  1.646876E-06  9.996432E-01 -4.628157E-01
        48 -1.799018E-06  9.996421E-01 -4.628162E-01
        49  4.184783E-06 -1.320402E+00  3.969497E-01
        50 -4.550719E-06  5.208373E-01 -1.306830E-01
        51  6.253220E+00 -1.528715E+01 -7.522153E-01
        74  5.932094E+00 -1.485273E+01  7.513883E-01
        75 -5.475690E-07  5.209086E-01  1.306595E-01
        76  1.404571E-06 -1.320454E+00 -3.969427E-01
        77 -3.448512E-06  9.996540E-01  4.628125E-01
        89 -5.931264E+00 -1.485346E+01  7.511571E-01
        90  2.965170E-06  5.209054E-01  1.306595E-01
        91 -1.817086E-06 -1.320453E+00 -3.969428E-01
        92  2.948280E-06  9.996559E-01  4.628125E-01
        98 -2.293307E-05 -1.289391E+01  8.230397E+00
        99  2.877444E-02  3.955102E+00 -7.502646E-03
       100  4.346460E-04  5.259862E+00  1.076312E-04
       101 -2.871619E-02  3.955130E+00 -8.667142E-03
       102 -4.637575E-05 -1.283536E+01 -8.215665E+00
       124 -6.624958E+00 -1.681358E+01  4.612235E-01
       125  2.130130E-03 -3.129369E+01 -1.396612E+00
       126  6.622705E+00 -1.681531E+01  4.618983E-01
       127 -3.767386E-07  1.041671E+00 -2.613589E-01
       128 -3.909433E-06  2.240633E+00 -8.016472E-01
       129  1.694132E-07 -2.640803E+00  7.938964E-01
       130  4.303025E-06  2.240632E+00 -8.016464E-01
       131 -4.536112E-07  1.999285E+00 -9.256298E-01
       153  4.650081E+00  5.200032E+01  1.174119E+00
       154 -3.113420E-01 -3.293692E+01 -9.494128E-04
       155 -4.368939E+00  5.150502E+01 -1.166976E+00
       156  1.002975E-05  1.041737E+00  2.122529E-05
       157  6.521877E-06  2.240640E+00 -6.012271E-01
       158 -4.970936E-06 -2.640853E+00 -9.929003E-06
       159  1.167851E-07  2.240694E+00  6.012297E-01
       160  1.038755E-06  1.999300E+00  2.881456E-06
       182 -6.186746E+00 -1.726710E+01 -4.666792E-01
       183  2.072289E-03 -3.050048E+01  1.392245E+00
       184  6.184512E+00 -1.726851E+01 -4.667100E-01
       185 -1.106128E-06  1.069527E+00  2.613140E-01
       186 -2.162706E-06  2.268408E+00  8.016245E-01
       187  4.110888E-07 -2.613210E+00 -7.938863E-01
       188  2.469005E-06  2.268406E+00  8.016241E-01
       189 -3.433665E-07  2.027017E+00  9.256210E-01
       211  4.369348E+00  5.151066E+01 -1.166740E+00
       212  3.101737E-01 -3.293697E+01 -1.152590E-03
       213 -4.649719E+00  5.199469E+01  1.173025E+00
       214 -7.952304E-06  1.041737E+00  1.967578E-05
       215  1.304548E-06  2.240692E+00  6.012298E-01
       216  3.977622E-06 -2.640853E+00 -9.212255E-06
       217 -5.347743E-06  2.240641E+00 -6.012273E-01
       218 -5.155308E-07  1.999300E+00  3.973589E-06
       250  2.856935E-04  1.049111E+02  2.327729E+00
       251 -2.684665E-01 -4.757425E+01 -1.568118E-02
       252 -3.566092E-03 -6.932237E+01 -4.273813E-03
       253  2.705665E-01 -4.757407E+01 -1.426575E-02
       254  3.699033E-04  1.043665E+02 -2.284176E+00
       255 -2.819356E-06  2.083480E+00  5.200267E-05
       256 -7.236588E-07  4.481281E+00 -1.202446E+00
       257 -6.205338E-06  4.481333E+00  2.284545E-05
       258  5.591672E-07 -5.281711E+00 -2.048560E-05
       259  5.931200E-06  4.481333E+00  2.308135E-05
       260 -1.450495E-06  4.481397E+00  1.202456E+00
       261  4.267585E-07  3.998604E+00  8.017819E-06

 displacements (vx,vy,vz) for set NALL and time  0.1500000E-01

         5  0.000000E+00  0.000000E+00  0.000000E+00
         6  0.000000E+00  0.000000E+00  0.000000E+00
         7  0.000000E+00  0.000000E+00  0.000000E+00
         8  0.000000E+00  0.000000E+00  0.000000E+00
        21  0.000000E+00  0.000000E+00  0.000000E+00
        22  0.000000E+00  0.000000E+00  0.000000E+00
        23  0.000000E+00  0.000000E+00  0.000000E+00
        24  0.000000E+00  0.000000E+00  0.000000E+00
        25  0.000000E+00  0.000000E+00  0.000000E+00
        26  0.000000E+00  0.000000E+00  0.000000E+00
        27  0.000000E+00  0.000000E+00  0.000000E+00
        28  0.000000E+00  0.000000E+00  0.000000E+00
        29  0.000000E+00  0.000000E+00  0.000000E+00
        30  0.000000E+00  0.000000E+00  0.000000E+00
        31  0.000000E+00  0.000000E+00  0.000000E+00
        32  0.000000E+00  0.000000E+00  0.000000E+00
        44  1.282051E-04 -1.268736E-03  1.856235E-04
        45  3.149206E-05 -9.871234E-04  2.992037E-04
        46 -3.472695E-05 -7.261319E-04  3.424292E-04
        47  4.174292E-05 -2.943474E-04  2.253278E-04
        48 -4.173996E-05 -2.943640E-04  2.253470E-04
        49  3.472562E-05 -7.261514E-04  3.424560E-04
        50 -3.153706E-05 -9.871546E-04  2.992302E-04
        51 -1.283904E-04 -1.268628E-03  1.856730E-04
        74 -1.145080E-04 -1.281697E-03 -1.858334E-04
        75 -2.379692E-05 -9.945470E-04 -2.995076E-04
        76  3.081263E-05 -7.225175E-04 -3.425152E-04
        77 -4.397975E-05 -2.922366E-04 -2.253143E-04
        89  1.143797E-04 -1.281758E-03 -1.857991E-04
        90  2.366583E-05 -9.946007E-04 -2.994881E-04
        91 -3.083660E-05 -7.225205E-04 -3.424850E-04
        92  4.396546E-05 -2.922383E-04 -2.252943E-04
        98  0.000000E+00  0.000000E+00  0.000000E+00
        99  0.000000E+00  0.000000E+00  0.000000E+00
       100  0.000000E+00  0.000000E+00  0.000000E+00
       101  0.000000E+00  0.000000E+00  0.000000E+00
       102  0.000000E+00  0.000000E+00  0.000000E+00
       124 -8.911436E-06 -1.175924E-03  1.750811E-04
       125 -7.441575E-08 -1.399951E-03  1.835427E-04
       126  8.764171E-06 -1.175951E-03  1.750955E-04
       127 -2.337607E-08 -1.032469E-03  3.316124E-04
       128  3.804646E-06 -7.596704E-04  3.676012E-04
       129 -4.076192E-09 -7.053691E-04  3.750974E-04
       130 -3.813343E-06 -7.596669E-04  3.675781E-04
       131  4.087388E-09 -2.975499E-04  2.188551E-04
       153 -1.035107E-04 -1.518447E-03  8.250813E-05
       154  2.924063E-06 -1.351243E-03 -4.706504E-08
       155  9.828192E-05 -1.526186E-03 -8.257563E-05
       156 -5.988317E-08 -1.116614E-03 -8.310709E-07
       157  2.093914E-05 -6.296673E-04  1.475012E-04
       158 -3.931361E-07 -6.415848E-04 -2.958822E-07
       159 -1.985493E-05 -6.276678E-04 -1.474589E-04
       160 -2.692379E-08 -2.435813E-04 -3.888596E-08
       182 -1.095056E-06 -1.171844E-03 -1.751992E-04
       183 -1.060713E-07 -1.404163E-03 -1.838123E-04
       184  9.388650E-07 -1.171834E-03 -1.751356E-04
       185 -3.358016E-08 -1.031558E-03 -3.300597E-04
       186  1.739893E-06 -7.606348E-04 -3.677116E-04
       187 -3.704993E-08 -7.052089E-04 -3.744665E-04
       188 -1.792368E-06 -7.606443E-04 -3.677100E-04
       189 -4.316862E-09 -2.977933E-04 -2.187945E-04
       211 -9.836606E-05 -1.526261E-03 -8.255927E-05
       212 -3.026237E-06 -1.351285E-03 -4.157674E-08
       213  1.033805E-04 -1.518395E-03  8.260184E-05
       214  7.019025E-09 -1.116623E-03 -7.917774E-07
       215  1.981655E-05 -6.276814E-04 -1.474245E-04
       216  3.534225E-07 -6.416194E-04 -2.627674E-07
       217 -2.096353E-05 -6.296987E-04  1.475145E-04
       218  1.779378E-08 -2.435896E-04 -2.767490E-08
       250 -4.386536E-08 -1.516851E-03  8.172478E-05
       251  1.389966E-06 -9.574619E-04  4.489638E-08
       252 -7.392983E-09 -1.225402E-03 -1.631660E-07
       253 -1.457262E-06 -9.574356E-04  4.822997E-08
       254 -6.406643E-08 -1.513485E-03 -8.215103E-05
       255 -3.269853E-08 -1.092223E-03  1.610409E-08
       256 -5.641433E-09 -6.198262E-04  1.645176E-04
       257 -4.554044E-07 -7.253368E-04  2.571497E-08
       258 -7.781073E-09 -6.425083E-04  9.912008E-09
       259  4.312031E-07 -7.253208E-04  7.619550E-09
       260 -2.106985E-08 -6.209174E-04 -1.645643E-04
       261 -6.658643E-09 -2.758033E-04  5.294358E-09

 forces (fx,fy,fz) for set NALL and time  0.1500000E-01

         5  1.337926E+00 -2.937478E-01 -7.356046E-01
         6 -1.337813E+00 -2.938021E-01 -7.357013E-01
         7  1.302692E+00 -2.729830E-01  7.360132E-01
         8 -1.302610E+00 -2.731310E-01  7.361526E-01
        21 -8.227963E-01  1.298290E+00 -7.101291E+00
        22  1.869974E-04 -5.837213E-01 -1.117172E+00
        23  8.224410E-01  1.298080E+00 -7.101268E+00
        24 -8.970437E-01  4.652997E+00 -3.732222E+00
        25 -5.143093E-02 -1.871788E+00 -8.830614E-03
        26  9.410272E-01  4.635232E+00  3.740388E+00
        27 -7.916037E-01  1.270600E+00  7.092476E+00
        28  3.763084E-04 -5.018659E-01  1.138633E+00
        29  7.912208E-01  1.270262E+00  7.092014E+00
        30 -9.410441E-01  4.635616E+00  3.740066E+00
        31  5.161448E-02 -1.871620E+00 -8.706648E-03
        32  8.971896E-01  4.652630E+00 -3.732895E+00
        44  5.023768E+00  1.191178E+01  5.913357E-01
        45 -4.852800E-06 -4.142314E-01  1.039353E-01
        46  3.723117E-06  1.050144E+00 -3.157028E-01
        47 -1.326536E-06 -7.950387E-01  3.680877E-01
        48  1.447538E-06 -7.950378E-01  3.680881E-01
        49 -3.334411E-06  1.050145E+00 -3.157029E-01
        50  3.614496E-06 -4.142330E-01  1.039350E-01
        51 -5.024216E+00  1.191148E+01  5.910783E-01
        74 -4.754535E+00  1.173758E+01 -5.956296E-01
        75  4.242877E-07 -4.142896E-01 -1.039163E-01
        76 -1.119380E-06  1.050186E+00  3.156973E-01
        77  2.760143E-06 -7.950473E-01 -3.680852E-01
        89  4.754148E+00  1.173818E+01 -5.962587E-01
        90 -2.347059E-06 -4.142871E-01 -1.039163E-01
        91  1.447461E-06  1.050186E+00  3.156974E-01
        92 -2.362295E-06 -7.950488E-01 -3.680852E-01
        98 -1.367753E-04  1.023082E+01 -6.531375E+00
        99 -5.415782E-02 -3.164206E+00  5.756669E-03
       100 -2.649189E-04 -4.127105E+00  2.646568E-03
       101  5.423740E-02 -3.164463E+00  6.141399E-03
       102  8.288467E-05  1.013481E+01  6.516786E+00
       124  5.136451E+00  1.346160E+01 -3.590666E-01
       125 -8.841196E-04  2.477470E+01  1.097551E+00
       126 -5.135484E+00  1.346225E+01 -3.581905E-01
       127  2.996249E-07 -8.284632E-01  2.078644E-01
       128  3.118251E-06 -1.782026E+00  6.375679E-01
       129 -1.347359E-07  2.100289E+00 -6.314035E-01
       130 -3.431286E-06 -1.782025E+00  6.375673E-01
       131  3.607673E-07 -1.590077E+00  7.361742E-01
       153 -3.909135E+00 -4.091961E+01 -9.230069E-01
       154  4.665810E-01  2.577072E+01 -4.913478E-03
       155  3.518065E+00 -4.079398E+01  9.257344E-01
       156 -7.968075E-06 -8.285152E-01 -1.686821E-05
       157 -5.195811E-06 -1.782031E+00  4.781694E-01
       158  3.952842E-06  2.100329E+00  7.888857E-06
       159 -8.884560E-08 -1.782073E+00 -4.781714E-01
       160 -8.317363E-07 -1.590088E+00 -2.291805E-06
       182  4.933518E+00  1.373479E+01  3.667702E-01
       183 -9.643512E-04  2.398970E+01 -1.106266E+00
       184 -4.932683E+00  1.373574E+01  3.686554E-01
       185  8.797281E-07 -8.300441E-01 -2.078286E-01
       186  1.725476E-06 -1.783542E+00 -6.375498E-01
       187 -3.269488E-07  2.098917E+00  6.313955E-01
       188 -1.969079E-06 -1.783541E+00 -6.375496E-01
       189  2.730883E-07 -1.591559E+00 -7.361671E-01
       211 -3.518051E+00 -4.079693E+01  9.259536E-01
       212 -4.658304E-01  2.577059E+01 -6.048421E-03
       213  3.908724E+00 -4.091708E+01 -9.208810E-01
       214  6.315829E-06 -8.285157E-01 -1.563585E-05
       215 -1.041570E-06 -1.782072E+00 -4.781715E-01
       216 -3.162835E-06  2.100329E+00  7.318809E-06
       217  4.261994E-06 -1.782032E+00  4.781695E-01
       218  4.156055E-07 -1.590088E+00 -3.160403E-06
       250 -1.050656E-05 -8.331908E+01 -1.835186E+00
       251  4.978436E-01  3.793562E+01  1.559742E-02
       252  1.826638E-03  5.468604E+01 -1.227261E-02
       253 -4.991200E-01  3.793608E+01  1.586807E-02
       254 -1.032907E-04 -8.240469E+01  1.817166E+00
       255  2.242289E-06 -1.657036E+00 -4.133728E-05
       256  5.755403E-07 -3.564062E+00  9.563318E-01
       257  4.939254E-06 -3.564104E+00 -1.815813E-05
       258 -4.447154E-07  4.200662E+00  1.627674E-05
       259 -4.721227E-06 -3.564104E+00 -1.834575E-05
       260  1.153613E-06 -3.564154E+00 -9.563400E-01
       261 -3.394090E-07 -3.180180E+00 -6.376010E-06

 displacements (vx,vy,vz) for set NALL and time  0.2000000E-01

         5  0.000000E+00  0.000000E+00  0.000000E+00
         6  0.000000E+00  0.000000E+00  0.000000E+00
         7  0.000000E+00  0.000000E+00  0.000000E+00
         8  0.000000E+00  0.000000E+00  0.000000E+00
        21  0.000000E+00  0.000000E+00  0.000000E+00
        22  0.000000E+00  0.000000E+00  0.000000E+00
        23  0.000000E+00  0.000000E+00  0.000000E+00
        24  0.000000E+00  0.000000E+00  0.000000E+00
        25  0.000000E+00  0.000000E+00  0.000000E+00
        26  0.000000E+00  0.000000E+00  0.000000E+00
        27  0.000000E+00  0.000000E+00  0.000000E+00
        28  0.000000E+00  0.000000E+00  0.000000E+00
        29  0.000000E+00  0.000000E+00  0.000000E+00
        30  0.000000E+00  0.000000E+00  0.000000E+00
        31  0.000000E+00  0.000000E+00  0.000000E+00
        32  0.000000E+00  0.000000E+00  0.000000E+00
        44 -9.546002E-05  9.874824E-04 -1.439699E-04
        45 -2.239025E-05  7.674838E-04 -2.319916E-04
        46  2.601283E-05  5.625602E-04 -2.656252E-04
        47 -3.294857E-05  2.278515E-04 -1.747923E-04
        48  3.294310E-05  2.278550E-04 -1.747678E-04
        49 -2.601606E-05  5.625781E-04 -2.655871E-04
        50  2.231038E-05  7.675067E-04 -2.320132E-04
        51  9.532087E-05  9.876458E-04 -1.439877E-04
        74  9.376209E-05  9.885296E-04  1.439082E-04
        75  2.147074E-05  7.681974E-04  2.320005E-04
        76 -2.555923E-05  5.622394E-04  2.656563E-04
        77  3.319915E-05  2.276571E-04  1.747827E-04
        89 -9.379621E-05  9.885279E-04  1.439486E-04
        90 -2.149337E-05  7.681856E-04  2.319979E-04
        91  2.558930E-05  5.622782E-04  2.656553E-04
        92 -3.319178E-05  2.276687E-04  1.747876E-04
        98  0.000000E+00  0.000000E+00  0.000000E+00
        99  0.000000E+00  0.000000E+00  0.000000E+00
       100  0.000000E+00  0.000000E+00  0.000000E+00
       101  0.000000E+00  0.000000E+00  0.000000E+00
       102  0.000000E+00  0.000000E+00  0.000000E+00
       124  3.668528E-06  9.106103E-04 -1.357242E-04
       125 -8.097833E-08  1.087343E-03 -1.424772E-04
       126 -3.798741E-06  9.105620E-04 -1.357738E-04
       127 -1.536532E-08  8.007638E-04 -2.566502E-04
       128 -2.284128E-06  5.896943E-04 -2.850376E-04
       129 -1.869982E-08  5.468895E-04 -2.905792E-04
       130  2.258608E-06  5.896789E-04 -2.850417E-04
       131 -1.081903E-09  2.309032E-04 -1.697476E-04
       153  7.831353E-05  1.179561E-03 -6.400580E-05
       154 -5.742160E-07  1.045252E-03 -4.413997E-08
       155 -7.768138E-05  1.180339E-03  6.398308E-05
       156 -8.275774E-08  8.652600E-04  5.039023E-08
       157 -1.571853E-05  4.880405E-04 -1.143653E-04
       158  8.323406E-08  4.982481E-04  1.791527E-08
       159  1.555119E-05  4.878300E-04  1.143386E-04
       160  2.995592E-08  1.893511E-04  8.818462E-09
       182  2.747805E-06  9.102555E-04  1.357113E-04
       183 -3.843781E-08  1.087308E-03  1.423825E-04
       184 -2.785176E-06  9.102950E-04  1.357109E-04
       185  4.813116E-09  8.005022E-04  2.564505E-04
       186 -2.024004E-06  5.897327E-04  2.850527E-04
       187 -5.459240E-09  5.469825E-04  2.905139E-04
       188  2.028956E-06  5.897436E-04  2.850568E-04
       189  6.772766E-09  2.309795E-04  1.697466E-04
       211  7.766417E-05  1.180315E-03  6.397000E-05
       212  5.093723E-07  1.045261E-03 -7.968712E-08
       213 -7.839770E-05  1.179671E-03 -6.390455E-05
       214  8.649113E-08  8.653103E-04  6.732356E-08
       215 -1.555510E-05  4.878553E-04  1.143445E-04
       216 -1.090302E-07  4.982493E-04  3.124351E-08
       217  1.569967E-05  4.880453E-04 -1.143657E-04
       218 -3.042238E-08  1.893606E-04  7.880783E-09
       250 -2.698057E-08  1.173716E-03 -6.351807E-05
       251 -7.832158E-08  7.433251E-04 -7.073498E-08