    1C
    1UUSER                                                              
    1UDATE              17.july.2018                                    
    1UTIME              02:01:47                                        
    1UHOST                                                              
    1UPGM               CalculiX                                        
    1UVERSION           Version 2.13                             
    1UCOMPILETIME       jue jun 14 00:40:39 CEST 2018                    
    1UDIR                                                               
    1UDBN                                                               
    1UMAT    1EL                                                        
    2C                            81                                     1
 -1         5 0.00000E+00 0.00000E+00 8.00000E+00
 -1         6 1.00000E+00 0.00000E+00 8.00000E+00
 -1         7 1.00000E+00 1.00000E+00 8.00000E+00
 -1         8 0.00000E+00 1.00000E+00 8.00000E+00
 -1        21 2.50000E-01 0.00000E+00 8.00000E+00
 -1        22 5.00000E-01 0.00000E+00 8.00000E+00
 -1        23 7.50000E-01 0.00000E+00 8.00000E+00
 -1        24 1.00000E+00 2.50000E-01 8.00000E+00
 -1        25 1.00000E+00 5.00000E-01 8.00000E+00
 -1        26 1.00000E+00 7.50000E-01 8.00000E+00
 -1        27 7.50000E-01 1.00000E+00 8.00000E+00
 -1        28 5.00000E-01 1.00000E+00 8.00000E+00
 -1        29 2.50000E-01 1.00000E+00 8.00000E+00
 -1        30 0.00000E+00 7.50000E-01 8.00000E+00
 -1        31 0.00000E+00 5.00000E-01 8.00000E+00
 -1        32 0.00000E+00 2.50000E-01 8.00000E+00
 -1        44 1.00000E+00 0.00000E+00 6.00000E+00
 -1        45 1.00000E+00 0.00000E+00 6.50000E+00
 -1        46 1.00000E+00 0.00000E+00 7.00000E+00
 -1        47 1.00000E+00 0.00000E+00 7.50000E+00
 -1        48 0.00000E+00 0.00000E+00 7.50000E+00
 -1        49 0.00000E+00 0.00000E+00 7.00000E+00
 -1        50 0.00000E+00 0.00000E+00 6.50000E+00
 -1        51 0.00000E+00 0.00000E+00 6.00000E+00
 -1        74 1.00000E+00 1.00000E+00 6.00000E+00
 -1        75 1.00000E+00 1.00000E+00 6.50000E+00
 -1        76 1.00000E+00 1.00000E+00 7.00000E+00
 -1        77 1.00000E+00 1.00000E+00 7.50000E+00
 -1        89 0.00000E+00 1.00000E+00 6.00000E+00
 -1        90 0.00000E+00 1.00000E+00 6.50000E+00
 -1        91 0.00000E+00 1.00000E+00 7.00000E+00
 -1        92 0.00000E+00 1.00000E+00 7.50000E+00
 -1        98 5.00000E-01 2.50000E-01 8.00000E+00
 -1        99 2.50000E-01 5.00000E-01 8.00000E+00
 -1       100 5.00000E-01 5.00000E-01 8.00000E+00
 -1       101 7.50000E-01 5.00000E-01 8.00000E+00
 -1       102 5.00000E-01 7.50000E-01 8.00000E+00
 -1       124 2.50000E-01 0.00000E+00 6.00000E+00
 -1       125 5.00000E-01 0.00000E+00 6.00000E+00
 -1       126 7.50000E-01 0.00000E+00 6.00000E+00
 -1       127 5.00000E-01 0.00000E+00 6.50000E+00
 -1       128 2.50000E-01 0.00000E+00 7.00000E+00
 -1       129 5.00000E-01 0.00000E+00 7.00000E+00
 -1       130 7.50000E-01 0.00000E+00 7.00000E+00
 -1       131 5.00000E-01 0.00000E+00 7.50000E+00
 -1       153 1.00000E+00 2.50000E-01 6.00000E+00
 -1       154 1.00000E+00 5.00000E-01 6.00000E+00
 -1       155 1.00000E+00 7.50000E-01 6.00000E+00
 -1       156 1.00000E+00 5.00000E-01 6.50000E+00
 -1       157 1.00000E+00 2.50000E-01 7.00000E+00
 -1       158 1.00000E+00 5.00000E-01 7.00000E+00
 -1       159 1.00000E+00 7.50000E-01 7.00000E+00
 -1       160 1.00000E+00 5.00000E-01 7.50000E+00
 -1       182 7.50000E-01 1.00000E+00 6.00000E+00
 -1       183 5.00000E-01 1.00000E+00 6.00000E+00
 -1       184 2.50000E-01 1.00000E+00 6.00000E+00
 -1       185 5.00000E-01 1.00000E+00 6.50000E+00
 -1       186 7.50000E-01 1.00000E+00 7.00000E+00
 -1       187 5.00000E-01 1.00000E+00 7.00000E+00
 -1       188 2.50000E-01 1.00000E+00 7.00000E+00
 -1       189 5.00000E-01 1.00000E+00 7.50000E+00
 -1       211 0.00000E+00 7.50000E-01 6.00000E+00
 -1       212 0.00000E+00 5.00000E-01 6.00000E+00
 -1       213 0.00000E+00 2.50000E-01 6.00000E+00
 -1       214 0.00000E+00 5.00000E-01 6.50000E+00
 -1       215 0.00000E+00 7.50000E-01 7.00000E+00
 -1       216 0.00000E+00 5.00000E-01 7.00000E+00
 -1       217 0.00000E+00 2.50000E-01 7.00000E+00
 -1       218 0.00000E+00 5.00000E-01 7.50000E+00
 -1       250 5.00000E-01 2.50000E-01 6.00000E+00
 -1       251 2.50000E-01 5.00000E-01 6.00000E+00
 -1       252 5.00000E-01 5.00000E-01 6.00000E+00
 -1       253 7.50000E-01 5.00000E-01 6.00000E+00
 -1       254 5.00000E-01 7.50000E-01 6.00000E+00
 -1       255 5.00000E-01 5.00000E-01 6.50000E+00
 -1       256 5.00000E-01 2.50000E-01 7.00000E+00
 -1       257 2.50000E-01 5.00000E-01 7.00000E+00
 -1       258 5.00000E-01 5.00000E-01 7.00000E+00
 -1       259 7.50000E-01 5.00000E-01 7.00000E+00
 -1       260 5.00000E-01 7.50000E-01 7.00000E+00
 -1       261 5.00000E-01 5.00000E-01 7.50000E+00
 -3
    3C                             8                                     1
 -1        25    4    0    1
 -2        51       125       252       212        49       129       258       216       124       250
 -2       251       213        50       127       255       214       128       256       257       217
 -1        26    4    0    1
 -2       125        44       154       252       129        46       158       258       126       153
 -2       253       250       127        45       156       255       130       157       259       256
 -1        27    4    0    1
 -2       212       252       183        89       216       258       187        91       251       254
 -2       184       211       214       255       185        90       257       260       188       215
 -1        28    4    0    1
 -2       252       154        74       183       258       158        76       187       253       155
 -2       182       254       255       156        75       185       259       159       186       260
 -1        29    4    0    1
 -2        49       129       258       216         5        22       100        31       128       256
 -2       257       217        48       131       261       218        21        98        99        32
 -1        30    4    0    1
 -2       129        46       158       258        22         6        25       100       130       157
 -2       259       256       131        47       160       261        23        24       101        98
 -1        31    4    0    1
 -2       216       258       187        91        31       100        28         8       257       260
 -2       188       215       218       261       189        92        99       102        29        30
 -1        32    4    0    1
 -2       258       158        76       187       100        25         7        28       259       159
 -2       186       260       261       160        77       189       101        26        27       102
 -3
    1PSTEP                         1           1           1          
  100CL  101 5.00000E-03          81                     1    1           1
 -4  DISP        4    1
 -5  D1          1    2    1    0
 -5  D2          1    2    2    0
 -5  D3          1    2    3    0
 -5  ALL         1    2    0    0    1ALL
 -1         5 0.00000E+00 0.00000E+00 0.00000E+00
 -1         6 0.00000E+00 0.00000E+00 0.00000E+00
 -1         7 0.00000E+00 0.00000E+00 0.00000E+00
 -1         8 0.00000E+00 0.00000E+00 0.00000E+00
 -1        21 0.00000E+00 0.00000E+00 0.00000E+00
 -1        22 0.00000E+00 0.00000E+00 0.00000E+00
 -1        23 0.00000E+00 0.00000E+00 0.00000E+00
 -1        24 0.00000E+00 0.00000E+00 0.00000E+00
 -1        25 0.00000E+00 0.00000E+00 0.00000E+00
 -1        26 0.00000E+00 0.00000E+00 0.00000E+00
 -1        27 0.00000E+00 0.00000E+00 0.00000E+00
 -1        28 0.00000E+00 0.00000E+00 0.00000E+00
 -1        29 0.00000E+00 0.00000E+00 0.00000E+00
 -1        30 0.00000E+00 0.00000E+00 0.00000E+00
 -1        31 0.00000E+00 0.00000E+00 0.00000E+00
 -1        32 0.00000E+00 0.00000E+00 0.00000E+00
 -1        44-5.96536E-05-3.46512E-03 4.48430E-04
 -1        45 5.66719E-05-2.56207E-03 7.85508E-04
 -1        46-4.78226E-05-1.79582E-03 9.49148E-04
 -1        47 1.30905E-04-6.75131E-04 5.43239E-04
 -1        48-1.30928E-04-6.75146E-04 5.43282E-04
 -1        49 4.77190E-05-1.79584E-03 9.49240E-04
 -1        50-5.68779E-05-2.56208E-03 7.85663E-04
 -1        51 5.92167E-05-3.46518E-03 4.48682E-04
 -1        74 3.17336E-04-4.41011E-03-4.94738E-04
 -1        75 1.90397E-04-2.97121E-03-7.85058E-04
 -1        76-1.10033E-04-1.59818E-03-9.49825E-04
 -1        77-2.07659E-04-5.27107E-04-5.58230E-04
 -1        89-3.17771E-04-4.41005E-03-4.94488E-04
 -1        90-1.90603E-04-2.97121E-03-7.84903E-04
 -1        91 1.09929E-04-1.59816E-03-9.49734E-04
 -1        92 2.07635E-04-5.27091E-04-5.58188E-04
 -1        98 0.00000E+00 0.00000E+00 0.00000E+00
 -1        99 0.00000E+00 0.00000E+00 0.00000E+00
 -1       100 0.00000E+00 0.00000E+00 0.00000E+00
 -1       101 0.00000E+00 0.00000E+00 0.00000E+00
 -1       102 0.00000E+00 0.00000E+00 0.00000E+00
 -1       124 1.48884E-04-2.96651E-03 4.29873E-04
 -1       125-1.81335E-07-3.58886E-03 4.48607E-04
 -1       126-1.49276E-04-2.96649E-03 4.29774E-04
 -1       127-1.13117E-07-2.56257E-03 9.03323E-04
 -1       128-9.09681E-06-1.95265E-03 9.48141E-04
 -1       129-3.82142E-08-1.81441E-03 9.41526E-04
 -1       130 9.00811E-06-1.95263E-03 9.48089E-04
 -1       131-7.87303E-09-7.36417E-04 5.56336E-04
 -1       153 6.92695E-05-3.63709E-03 1.91269E-04
 -1       154-1.20377E-04-2.50531E-03-2.10941E-05
 -1       155-6.47445E-05-3.88943E-03-2.38095E-04
 -1       156-1.20151E-04-2.78899E-03-6.45931E-05
 -1       157-2.04785E-05-1.50925E-03 3.92246E-04
 -1       158 8.82773E-05-1.56746E-03-2.94028E-05
 -1       159 4.65651E-05-1.47601E-03-4.11053E-04
 -1       160 3.97428E-05-6.56464E-04 4.88515E-06
 -1       182 1.14062E-04-2.56371E-03-4.71251E-04
 -1       183-1.81347E-07-4.35346E-03-4.76602E-04
 -1       184-1.14454E-04-2.56369E-03-4.71154E-04
 -1       185-1.13142E-07-2.83294E-03-8.73830E-04
 -1       186-4.39648E-05-2.16197E-03-9.82630E-04
 -1       187-3.82943E-08-1.83192E-03-9.63776E-04
 -1       188 4.38762E-05-2.16196E-03-9.82579E-04
 -1       189-7.86106E-09-7.20013E-04-5.64477E-04
 -1       211 6.42626E-05-3.88940E-03-2.37861E-04
 -1       212 1.19869E-04-2.50531E-03-2.08359E-05
 -1       213-6.97518E-05-3.63712E-03 1.91504E-04
 -1       214 1.19952E-04-2.78899E-03-6.44340E-05
 -1       215-4.66790E-05-1.47600E-03-4.10957E-04
 -1       216-8.84008E-05-1.56746E-03-2.93118E-05
 -1       217 2.03644E-05-1.50926E-03 3.92342E-04
 -1       218-3.97720E-05-6.56464E-04 4.92008E-06
 -1       250-1.83163E-07-4.08018E-03 1.74344E-04
 -1       251 2.99664E-05-2.57225E-03-1.04606E-05
 -1       252-1.82453E-07-3.12248E-03-1.58317E-05
 -1       253-3.03944E-05-2.57225E-03-1.05251E-05
 -1       254-1.83205E-07-4.41107E-03-2.54199E-04
 -1       255-1.22983E-07-2.59981E-03-3.20078E-05
 -1       256-3.79794E-08-1.60727E-03 3.95724E-04
 -1       257-4.11155E-05-1.74941E-03-1.19800E-05
 -1       258-3.59940E-08-1.78977E-03-1.45620E-05
 -1       259 4.10192E-05-1.74941E-03-1.20393E-05
 -1       260-3.80228E-08-1.62243E-03-4.18332E-04
 -1       261-1.25636E-08-7.17003E-04-1.97613E-06
 -3
    1PSTEP                         2           2           1          
  100CL  102 1.00000E-02          81                     1    2           1
 -4  DISP        4    1
 -5  D1          1    2    1    0
 -5  D2          1    2    2    0
 -5  D3          1    2    3    0
 -5  ALL         1    2    0    0    1ALL
 -1         5 0.00000E+00 0.00000E+00 0.00000E+00
 -1         6 0.00000E+00 0.00000E+00 0.00000E+00
 -1         7 0.00000E+00 0.00000E+00 0.00000E+00
 -1         8 0.00000E+00 0.00000E+00 0.00000E+00
 -1        21 0.00000E+00 0.00000E+00 0.00000E+00
 -1        22 0.00000E+00 0.00000E+00 0.00000E+00
 -1        23 0.00000E+00 0.00000E+00 0.00000E+00
 -1        24 0.00000E+00 0.00000E+00 0.00000E+00
 -1        25 0.00000E+00 0.00000E+00 0.00000E+00
 -1        26 0.00000E+00 0.00000E+00 0.00000E+00
 -1        27 0.00000E+00 0.00000E+00 0.00000E+00
 -1        28 0.00000E+00 0.00000E+00 0.00000E+00
 -1        29 0.00000E+00 0.00000E+00 0.00000E+00
 -1        30 0.00000E+00 0.00000E+00 0.00000E+00
 -1        31 0.00000E+00 0.00000E+00 0.00000E+00
 -1        32 0.00000E+00 0.00000E+00 0.00000E+00
 -1        44-1.42491E-04 1.61565E-03-2.33859E-04
 -1        45-3.07294E-05 1.25285E-03-3.76913E-04
 -1        46 4.00054E-05 9.13003E-04-4.32485E-04
 -1        47-5.52487E-05 3.68673E-04-2.84019E-04
 -1        48 5.52374E-05 3.68675E-04-2.83999E-04
 -1        49-4.00631E-05 9.12986E-04-4.32394E-04
 -1        50 3.07313E-05 1.25275E-03-3.76857E-04
 -1        51 1.42548E-04 1.61532E-03-2.33837E-04
 -1        74 1.58669E-04 1.60241E-03 2.34184E-04
 -1        75 3.95236E-05 1.24471E-03 3.76818E-04
 -1        76-4.31838E-05 9.15928E-04 4.32394E-04
 -1        77 5.28247E-05 3.70755E-04 2.84080E-04
 -1        89-1.58723E-04 1.60240E-03 2.34021E-04
 -1        90-3.95662E-05 1.24480E-03 3.76823E-04
 -1        91 4.30861E-05 9.15873E-04 4.32491E-04
 -1        92-5.28552E-05 3.70737E-04 2.84107E-04
 -1        98 0.00000E+00 0.00000E+00 0.00000E+00
 -1        99 0.00000E+00 0.00000E+00 0.00000E+00
 -1       100 0.00000E+00 0.00000E+00 0.00000E+00
 -1       101 0.00000E+00 0.00000E+00 0.00000E+00
 -1       102 0.00000E+00 0.00000E+00 0.00000E+00
 -1       124-6.35207E-06 1.47655E-03-2.20345E-04
 -1       125 6.55996E-08 1.77144E-03-2.31297E-04
 -1       126 6.39802E-06 1.47662E-03-2.20436E-04
 -1       127-2.24409E-08 1.30147E-03-4.16542E-04
 -1       128-1.14482E-06 9.59756E-04-4.63482E-04
 -1       129 8.41270E-09 8.88316E-04-4.71715E-04
 -1       130 1.13689E-06 9.59787E-04-4.63516E-04
 -1       131-7.33549E-09 3.75519E-04-2.76002E-04
 -1       153 1.21038E-04 1.92539E-03-1.03864E-04
 -1       154 3.60245E-06 1.68941E-03 1.12095E-07
 -1       155-1.27428E-04 1.90837E-03 1.03934E-04
 -1       156 2.20783E-07 1.40619E-03-7.71606E-07
 -1       157-2.39938E-05 7.90771E-04-1.85958E-04
 -1       158-1.09051E-06 8.09783E-04-2.56168E-07
 -1       159 2.51163E-05 7.94604E-04 1.86167E-04
 -1       160-9.81586E-08 3.08529E-04-5.49900E-08
 -1       182 1.16040E-05 1.48091E-03 2.20679E-04
 -1       183 4.00195E-08 1.76871E-03 2.31237E-04
 -1       184-1.16423E-05 1.48079E-03 2.20618E-04
 -1       185-7.55823E-08 1.30326E-03 4.18553E-04
 -1       186-4.91730E-06 9.59497E-04 4.63487E-04
 -1       187 5.08220E-09 8.89833E-04 4.72593E-04
 -1       188 4.88588E-06 9.59497E-04 4.63529E-04
 -1       189-1.72009E-08 3.75264E-04 2.76064E-04
 -1       211 1.27206E-04 1.90843E-03 1.04084E-04
 -1       212-3.82692E-06 1.68936E-03 1.91152E-07
 -1       213-1.21195E-04 1.92513E-03-1.03741E-04
 -1       214-3.41718E-07 1.40615E-03-7.42017E-07
 -1       215-2.51609E-05 7.94556E-04 1.86181E-04
 -1       216 1.07045E-06 8.09780E-04-2.27434E-07
 -1       217 2.39691E-05 7.90779E-04-1.85923E-04
 -1       218 8.23382E-08 3.08518E-04-1.61369E-08
 -1       250-7.98154E-08 1.90183E-03-1.03283E-04
 -1       251 5.69498E-06 1.20963E-03 2.35965E-07
 -1       252-2.43946E-07 1.54277E-03 3.08589E-08
 -1       253-6.00953E-06 1.20966E-03 2.39859E-07
 -1       254-8.02669E-08 1.91536E-03 1.03181E-04
 -1       255-4.64592E-08 1.37424E-03 1.54871E-07
 -1       256-2.09540E-08 7.85189E-04-2.07261E-04
 -1       257-1.16881E-06 9.13701E-04 9.26195E-08
 -1       258-4.33138E-08 8.12916E-04 7.69467E-08
 -1       259 1.10530E-06 9.13701E-04 6.92834E-08
 -1       260-2.58399E-08 7.82648E-04 2.07337E-04
 -1       261 6.31992E-09 3.48494E-04 4.16856E-09
 -3
    1PSTEP                         3           3           1          
  100CL  103 1.50000E-02          81                     1    3           1
 -4  DISP        4    1
 -5  D1          1    2    1    0
 -5  D2          1    2    2    0
 -5  D3          1    2    3    0
 -5  ALL         1    2    0    0    1ALL
 -1         5 0.00000E+00 0.00000E+00 0.00000E+00
 -1         6 0.00000E+00 0.00000E+00 0.00000E+00
 -1         7 0.00000E+00 0.00000E+00 0.00000E+00
 -1         8 0.00000E+00 0.00000E+00 0.00000E+00
 -1        21 0.00000E+00 0.00000E+00 0.00000E+00
 -1        22 0.00000E+00 0.00000E+00 0.00000E+00
 -1        23 0.00000E+00 0.00000E+00 0.00000E+00
 -1        24 0.00000E+00 0.00000E+00 0.00000E+00
 -1        25 0.00000E+00 0.00000E+00 0.00000E+00
 -1        26 0.00000E+00 0.00000E+00 0.00000E+00
 -1        27 0.00000E+00 0.00000E+00 0.00000E+00
 -1        28 0.00000E+00 0.00000E+00 0.00000E+00
 -1        29 0.00000E+00 0.00000E+00 0.00000E+00
 -1        30 0.00000E+00 0.00000E+00 0.00000E+00
 -1        31 0.00000E+00 0.00000E+00 0.00000E+00
 -1        32 0.00000E+00 0.00000E+00 0.00000E+00
 -1        44 1.18191E-04-1.27792E-03 1.85403E-04
 -1        45 2.63957E-05-9.91890E-04 2.98853E-04
 -1        46-3.21037E-05-7.22773E-04 3.42267E-04
 -1        47 4.31814E-05-2.92544E-04 2.25066E-04
 -1        48-4.31874E-05-2.92557E-04 2.25082E-04
 -1        49 3.20938E-05-7.22780E-04 3.42279E-04
 -1        50-2.65169E-05-9.91862E-04 2.98890E-04
 -1        51-1.18407E-04-1.27775E-03 1.85448E-04
 -1        74-1.21711E-04-1.27484E-03-1.85463E-04
 -1        75-2.83670E-05-9.90121E-04-2.98880E-04
 -1        76 3.30937E-05-7.23720E-04-3.42261E-04
 -1        77-4.26566E-05-2.93050E-04-2.25089E-04
 -1        89 1.21490E-04-1.27505E-03-1.85428E-04
 -1        90 2.82394E-05-9.90135E-04-2.98837E-04
 -1        91-3.30986E-05-7.23726E-04-3.42249E-04
 -1        92 4.26487E-05-2.93035E-04-2.25068E-04
 -1        98 0.00000E+00 0.00000E+00 0.00000E+00
 -1        99 0.00000E+00 0.00000E+00 0.00000E+00
 -1       100 0.00000E+00 0.00000E+00 0.00000E+00
 -1       101 0.00000E+00 0.00000E+00 0.00000E+00
 -1       102 0.00000E+00 0.00000E+00 0.00000E+00
 -1       124-4.06411E-06-1.17109E-03 1.74729E-04
 -1       125-1.31432E-07-1.40276E-03 1.83321E-04
 -1       126 3.85463E-06-1.17111E-03 1.74729E-04
 -1       127-3.90883E-08-1.03130E-03 3.30235E-04
 -1       128 2.55882E-06-7.60125E-04 3.67258E-04
 -1       129-2.81894E-08-7.04655E-04 3.74171E-04
 -1       130-2.59871E-06-7.60135E-04 3.67249E-04
 -1       131 6.29325E-10-2.97464E-04 2.18711E-04
 -1       153-9.90461E-05-1.51965E-03 8.23580E-05
 -1       154-7.95332E-07-1.34466E-03-6.47865E-08
 -1       155 1.00166E-04-1.51840E-03-8.24047E-05
 -1       156-3.11173E-08-1.11485E-03 1.57990E-07
 -1       157 1.98622E-05-6.28060E-04 1.47368E-04
 -1       158 4.86274E-08-6.41530E-04 4.68076E-08
 -1       159-2.01687E-05-6.28442E-04-1.47429E-04
 -1       160 7.12638E-09-2.43972E-04 6.35523E-09
 -1       182-5.34091E-06-1.17207E-03-1.74746E-04
 -1       183-1.51073E-07-1.40196E-03-1.83325E-04
 -1       184 5.11060E-06-1.17211E-03-1.74747E-04
 -1       185-3.70757E-08-1.03161E-03-3.30647E-04
 -1       186 2.93942E-06-7.59945E-04-3.67244E-04
 -1       187-3.11746E-08-7.04657E-04-3.74338E-04
 -1       188-2.98000E-06-7.59961E-04-3.67236E-04
 -1       189 1.04385E-09-2.97411E-04-2.18732E-04
 -1       211-1.00288E-04-1.51854E-03-8.23634E-05
 -1       212 6.91779E-07-1.34464E-03-2.46092E-10
 -1       213 9.89348E-05-1.51951E-03 8.23815E-05
 -1       214-3.42532E-08-1.11486E-03 2.18871E-07
 -1       215 2.01306E-05-6.28431E-04-1.47397E-04
 -1       216-1.01681E-07-6.41522E-04 8.77401E-08
 -1       217-1.99041E-05-6.28070E-04 1.47403E-04
 -1       218-1.88013E-08-2.43973E-04 1.81380E-08
 -1       250-6.01874E-08-1.51419E-03 8.17986E-05
 -1       251-6.16460E-08-9.57878E-04-8.21188E-09
 -1       252 2.68295E-08-1.22252E-03 1.34494E-08
 -1       253 1.70978E-08-9.57891E-04-6.45882E-08
 -1       254-7.07895E-08-1.51451E-03-8.17549E-05
 -1       255-3.56443E-08-1.08988E-03-1.33347E-08
 -1       256-1.71012E-08-6.20435E-04 1.64258E-04
 -1       257 3.33799E-08-7.24414E-04 8.63737E-11
 -1       258-9.43928E-09-6.43319E-04-7.23791E-09
 -1       259-6.28824E-08-7.24417E-04-1.54180E-08
 -1       260-1.85211E-08-6.20285E-04-1.64259E-04
 -1       261-1.05257E-08-2.76052E-04-1.64463E-09
 -3
    1PSTEP                         4           4           1          
  100CL  104 2.00000E-02          81                     1    4           1
 -4  DISP        4    1
 -5  D1          1    2    1    0
 -5  D2          1    2    2    0
 -5  D3          1    2    3    0
 -5  ALL         1    2    0    0    1ALL
 -1         5 0.00000E+00 0.00000E+00 0.00000E+00
 -1         6 0.00000E+00 0.00000E+00 0.00000E+00
 -1         7 0.00000E+00 0.00000E+00 0.00000E+00
 -1         8 0.00000E+00 0.00000E+00 0.00000E+00
 -1        21 0.00000E+00 0.00000E+00 0.00000E+00
 -1        22 0.00000E+00 0.00000E+00 0.00000E+00
 -1        23 0.00000E+00 0.00000E+00 0.00000E+00
 -1        24 0.00000E+00 0.00000E+00 0.00000E+00
 -1        25 0.00000E+00 0.00000E+00 0.00000E+00
 -1        26 0.00000E+00 0.00000E+00 0.00000E+00
 -1        27 0.00000E+00 0.00000E+00 0.00000E+00
 -1        28 0.00000E+00 0.00000E+00 0.00000E+00
 -1        29 0.00000E+00 0.00000E+00 0.00000E+00
 -1        30 0.00000E+00 0.00000E+00 0.00000E+00
 -1        31 0.00000E+00 0.00000E+00 0.00000E+00
 -1        32 0.00000E+00 0.00000E+00 0.00000E+00
 -1        44-8.91556E-05 9.93037E-04-1.43799E-04
 -1        45-1.94905E-05 7.70205E-04-2.31622E-04
 -1        46 2.45174E-05 5.60625E-04-2.65635E-04
 -1        47-3.38109E-05 2.26693E-04-1.74532E-04
 -1        48 3.38292E-05 2.26717E-04-1.74586E-04
 -1        49-2.45012E-05 5.60576E-04-2.65686E-04
 -1        50 1.96805E-05 7.70255E-04-2.31683E-04
 -1        51 8.94947E-05 9.92615E-04-1.43774E-04
 -1        74 9.35593E-05 9.88633E-04 1.43788E-04
 -1        75 2.20775E-05 7.67884E-04 2.31585E-04
 -1        76-2.55112E-05 5.61558E-04 2.65677E-04
 -1        77 3.31555E-05 2.27365E-04 1.74579E-04
 -1        89-9.33185E-05 9.88712E-04 1.43684E-04
 -1        90-2.19130E-05 7.67968E-04 2.31530E-04
 -1        91 2.55562E-05 5.61513E-04 2.65671E-04
 -1        92-3.31425E-05 2.27352E-04 1.74573E-04
 -1        98 0.00000E+00 0.00000E+00 0.00000E+00
 -1        99 0.00000E+00 0.00000E+00 0.00000E+00
 -1       100 0.00000E+00 0.00000E+00 0.00000E+00
 -1       101 0.00000E+00 0.00000E+00 0.00000E+00
 -1       102 0.00000E+00 0.00000E+00 0.00000E+00
 -1       124 1.08730E-06 9.07855E-04-1.35428E-04
 -1       125 2.39694E-07 1.08873E-03-1.42192E-04
 -1       126-7.17971E-07 9.07994E-04-1.35424E-04
 -1       127 5.28501E-08 7.99870E-04-2.56150E-04
 -1       128-1.53490E-06 5.89995E-04-2.84913E-04
 -1       129 4.80609E-08 5.46737E-04-2.90089E-04
 -1       130 1.59946E-06 5.90035E-04-2.84891E-04
 -1       131 1.07918E-09 2.30934E-04-1.69734E-04
 -1       153 7.54819E-05 1.17924E-03-6.37239E-05
 -1       154 8.54306E-07 1.04013E-03 8.91046E-09
 -1       155-7.68504E-05 1.17527E-03 6.37678E-05
 -1       156-3.35853E-09 8.65258E-04-2.10092E-07
 -1       157-1.50205E-05 4.86743E-04-1.14377E-04
 -1       158-1.00273E-07 4.97250E-04-6.23692E-08
 -1       159 1.53932E-05 4.87596E-04 1.14447E-04
 -1       160 3.02141E-08 1.89454E-04 1.12239E-08
 -1       182 4.64287E-06 9.09326E-04 1.35406E-04
 -1       183 1.29072E-07 1.08728E-03 1.42026E-04
 -1       184-4.42183E-06 9.09289E-04 1.35415E-04
 -1       185 6.51932E-08 8.00014E-04 2.56689E-04
 -1       186-2.37685E-06 5.89712E-04 2.84858E-04
 -1       187 4.34800E-08 5.47009E-04 2.90263E-04
 -1       188 2.44931E-06 5.89706E-04 2.84846E-04
 -1       189 4.41375E-09 2.30883E-04 1.69735E-04
 -1       211 7.69120E-05 1.17542E-03 6.38775E-05
 -1       212-8.08485E-07 1.04027E-03 3.93720E-10
 -1       213-7.53133E-05 1.17906E-03-6.38671E-05
 -1       214 1.48886E-07 8.65181E-04-2.76017E-07
 -1       215-1.53279E-05 4.87593E-04 1.14374E-04
 -1       216 1.53313E-07 4.97313E-04-1.29118E-07
 -1       217 1.50629E-05 4.86761E-04-1.14408E-04
 -1       218-4.71060E-09 1.89447E-04-2.16390E-08
 -1       250 1.39152E-07 1.17458E-03-6.34678E-05
 -1       251 1.14142E-06 7.43061E-04-8.41425E-09
 -1       252 2.09317E-08 9.49891E-04 4.14241E-08
 -1       253-1.07014E-06 7.42974E-04 9.88509E-08
 -1       254 8.58701E-08 1.17699E-03 6.32835E-05
 -1       255 4.38042E-08 8.45062E-04-5.88891E-09
 -1       256 4.05803E-08 4.81914E-04-1.27345E-04
 -1       257-2.41590E-07 5.61964E-04 1.44425E-10
 -1       258 3.63415E-08 4.99694E-04-4.96908E-09
 -1       259 2.96891E-07 5.61937E-04 1.03939E-08
 -1       260 3.76784E-08 4.81361E-04 1.27343E-04
 -1       261 1.33805E-08 2.14217E-04-6.27518E-09
 -3
    1PSTEP                         5           5           1          
  100CL  105 2.50000E-02          81                     1    5           1
 -4  DISP        4    1
 -5  D1          1    2    1    0
 -5  D2          1    2    2    0
 -5  D3          1    2    3    0
 -5  ALL         1    2    0    0    1ALL
 -1         5 0.00000E+00 0.00000E+00 0.00000E+00
 -1         6 0.00000E+00 0.00000E+00 0.00000E+00
 -1         7 0.00000E+00 0.00000E+00 0.00000E+00
 -1         8 0.00000E+00 0.00000E+00 0.00000E+00
 -1        21 0.00000E+00 0.00000E+00 0.00000E+00
 -1        22 0.00000E+00 0.00000E+00 0.00000E+00
 -1        23 0.00000E+00 0.00000E+00 0.00000E+00
 -1        24 0.00000E+00 0.00000E+00 0.00000E+00
 -1        25 0.00000E+00 0.00000E+00 0.00000E+00
 -1        26 0.00000E+00 0.00000E+00 0.00000E+00
 -1        27 0.00000E+00 0.00000E+00 0.00000E+00
 -1        28 0.00000E+00 0.00000E+00 0.00000E+00
 -1        29 0.00000E+00 0.00000E+00 0.00000E+00
 -1        30 0.00000E+00 0.00000E+00 0.00000E+00
 -1        31 0.00000E+00 0.00000E+00 0.00000E+00
 -1        32 0.00000E+00 0.00000E+00 0.00000E+00
 -1        44 6.84989E-05-7.48002E-04 1.08480E-04
 -1        45 1.52026E-05-5.80575E-04 1.74793E-04
 -1        46-1.88130E-05-4.23536E-04 2.00385E-04
 -1        47 2.53464E-05-1.71365E-04 1.31790E-04
 -1        48-2.53438E-05-1.71364E-04 1.31774E-04
 -1        49 1.87956E-05-4.23537E-04 2.00363E-04
 -1        50-1.51977E-05-5.80550E-04 1.74807E-04
 -1        51-6.86122E-05-7.47924E-04 1.08523E-04
 -1        74-7.19976E-05-7.44682E-04-1.08504E-04
 -1        75-1.71230E-05-5.78740E-04-1.74764E-04
 -1        76 1.97011E-05-4.24346E-04-2.00339E-04
 -1        77-2.47998E-05-1.71887E-04-1.31784E-04
 -1        89 7.19106E-05-7.44810E-04-1.08484E-04
 -1        90 1.71257E-05-5.78712E-04-1.74731E-04
 -1        91-1.96909E-05-4.24364E-04-2.00359E-04
 -1        92 2.48033E-05-1.71878E-04-1.31787E-04
 -1        98 0.00000E+00 0.00000E+00 0.00000E+00
 -1        99 0.00000E+00 0.00000E+00 0.00000E+00
 -1       100 0.00000E+00 0.00000E+00 0.00000E+00
 -1       101 0.00000E+00 0.00000E+00 0.00000E+00
 -1       102 0.00000E+00 0.00000E+00 0.00000E+00
 -1       124-8.21917E-07-6.85441E-04 1.02145E-04
 -1       125 5.62135E-10-8.21176E-04 1.07241E-04
 -1       126 7.76073E-07-6.85471E-04 1.02204E-04
 -1       127-2.19243E-08-6.03839E-04 1.93221E-04
 -1       128 1.23630E-06-4.45134E-04 2.14945E-04
 -1       129 8.16980E-09-4.12432E-04 2.18910E-04
 -1       130-1.23872E-06-4.45137E-04 2.14939E-04
 -1       131-1.18483E-09-1.74259E-04 1.28054E-04
 -1       153-5.75086E-05-8.90340E-04 4.81604E-05
 -1       154-7.51163E-07-7.85878E-04-4.13421E-08
 -1       155 5.87092E-05-8.87759E-04-4.81633E-05
 -1       156 1.23582E-08-6.52523E-04 1.81294E-07
 -1       157 1.14506E-05-3.67653E-04 8.62430E-05
 -1       158 1.10165E-07-3.75780E-04 6.76620E-08
 -1       159-1.17270E-05-3.68251E-04-8.62644E-05
 -1       160 3.53379E-09-1.43043E-04 9.15764E-09
 -1       182-3.33778E-06-6.86455E-04-1.02128E-04
 -1       183-3.99888E-08-8.20103E-04-1.07199E-04
 -1       184 3.26813E-06-6.86502E-04-1.02173E-04
 -1       185-3.90119E-09-6.04042E-04-1.93611E-04
 -1       186 1.84706E-06-4.44897E-04-2.14913E-04
 -1       187 4.19990E-09-4.12547E-04-2.19059E-04
 -1       188-1.84019E-06-4.44911E-04-2.14910E-04
 -1       189 3.04507E-09-1.74203E-04-1.28063E-04
 -1       211-5.87569E-05-8.87798E-04-4.81382E-05
 -1       212 7.37375E-07-7.85805E-04 2.57746E-08
 -1       213 5.74660E-05-8.90254E-04 4.81441E-05
 -1       214-1.32428E-08-6.52535E-04 1.99478E-07
 -1       215 1.17288E-05-3.68244E-04-8.62662E-05
 -1       216-1.13995E-07-3.75755E-04 7.05198E-08
 -1       217-1.14659E-05-3.67645E-04 8.62514E-05
 -1       218-1.57437E-09-1.43043E-04 7.79246E-09
 -1       250 1.60003E-08-8.84817E-04 4.78687E-05
 -1       251-6.14225E-07-5.60856E-04 1.09343E-08
 -1       252 2.84384E-08-7.15634E-04 4.33993E-08
 -1       253 6.29510E-07-5.60899E-04-4.71662E-08
 -1       254-7.06116E-09-8.86215E-04-4.77797E-05
 -1       255 2.61309E-10-6.37857E-04 1.15001E-09
 -1       256 5.75866E-09-3.63687E-04 9.61446E-05
 -1       257 1.62017E-07-4.24120E-04-6.77890E-09
 -1       258 3.31410E-09-3.76896E-04-3.31447E-09
 -1       259-1.58843E-07-4.24131E-04-2.79760E-09
 -1       260 4.16349E-09-3.63323E-04-9.61299E-05
 -1       261-9.24296E-10-1.61706E-04-1.09673E-09
 -3
    1PSTEP                         6           6           1          
  100CL  106 3.00000E-02          81                     1    6           1
 -4  DISP        4    1
 -5  D1          1    2    1    0
 -5  D2          1    2    2    0
 -5  D3          1    2    3    0
 -5  ALL         1    2    0    0    1ALL
 -1         5 0.00000E+00 0.00000E+00 0.00000E+00
 -1         6 0.00000E+00 0.00000E+00 0.00000E+00
 -1         7 0.00000E+00 0.00000E+00 0.00000E+00
 -1         8 0.00000E+00 0.00000E+00 0.00000E+00
 -1        21 0.00000E+00 0.00000E+00 0.00000E+00
 -1        22 0.00000E+00 0.00000E+00 0.00000E+00
 -1        23 0.00000E+00 0.00000E+00 0.00000E+00
 -1        24 0.00000E+00 0.00000E+00 0.00000E+00
 -1        25 0.00000E+00 0.00000E+00 0.00000E+00
 -1        26 0.00000E+00 0.00000E+00 0.00000E+00
 -1        27 0.00000E+00 0.00000E+00 0.00000E+00
 -1        28 0.00000E+00 0.00000E+00 0.00000E+00
 -1        29 0.00000E+00 0.00000E+00 0.00000E+00
 -1        30 0.00000E+00 0.00000E+00 0.00000E+00
 -1        31 0.00000E+00 0.00000E+00 0.00000E+00
 -1        32 0.00000E+00 0.00000E+00 0.00000E+00
 -1        44-4.90185E-05 5.44154E-04-7.86911E-05
 -1        45-1.04866E-05 4.22288E-04-1.26832E-04
 -1        46 1.33501E-05 3.06633E-04-1.45407E-04
 -1        47-1.85691E-05 1.24032E-04-9.56119E-05