    1C
    1UUSER                                                              
    1UDATE              15.july.2018                                    
    1UTIME              21:38:39                                        
    1UHOST                                                              
    1UPGM               CalculiX                                        
    1UVERSION           Version 2.13                             
    1UCOMPILETIME       jue jun 14 00:40:39 CEST 2018                    
    1UDIR                                                               
    1UDBN                                                               
    1UMAT    1EL                                                        
    2C                            81                                     1
 -1         5 0.00000E+00 0.00000E+00 8.00000E+00
 -1         6 1.00000E+00 0.00000E+00 8.00000E+00
 -1         7 1.00000E+00 1.00000E+00 8.00000E+00
 -1         8 0.00000E+00 1.00000E+00 8.00000E+00
 -1        21 2.50000E-01 0.00000E+00 8.00000E+00
 -1        22 5.00000E-01 0.00000E+00 8.00000E+00
 -1        23 7.50000E-01 0.00000E+00 8.00000E+00
 -1        24 1.00000E+00 2.50000E-01 8.00000E+00
 -1        25 1.00000E+00 5.00000E-01 8.00000E+00
 -1        26 1.00000E+00 7.50000E-01 8.00000E+00
 -1        27 7.50000E-01 1.00000E+00 8.00000E+00
 -1        28 5.00000E-01 1.00000E+00 8.00000E+00
 -1        29 2.50000E-01 1.00000E+00 8.00000E+00
 -1        30 0.00000E+00 7.50000E-01 8.00000E+00
 -1        31 0.00000E+00 5.00000E-01 8.00000E+00
 -1        32 0.00000E+00 2.50000E-01 8.00000E+00
 -1        44 1.00000E+00 0.00000E+00 6.00000E+00
 -1        45 1.00000E+00 0.00000E+00 6.50000E+00
 -1        46 1.00000E+00 0.00000E+00 7.00000E+00
 -1        47 1.00000E+00 0.00000E+00 7.50000E+00
 -1        48 0.00000E+00 0.00000E+00 7.50000E+00
 -1        49 0.00000E+00 0.00000E+00 7.00000E+00
 -1        50 0.00000E+00 0.00000E+00 6.50000E+00
 -1        51 0.00000E+00 0.00000E+00 6.00000E+00
 -1        74 1.00000E+00 1.00000E+00 6.00000E+00
 -1        75 1.00000E+00 1.00000E+00 6.50000E+00
 -1        76 1.00000E+00 1.00000E+00 7.00000E+00
 -1        77 1.00000E+00 1.00000E+00 7.50000E+00
 -1        89 0.00000E+00 1.00000E+00 6.00000E+00
 -1        90 0.00000E+00 1.00000E+00 6.50000E+00
 -1        91 0.00000E+00 1.00000E+00 7.00000E+00
 -1        92 0.00000E+00 1.00000E+00 7.50000E+00
 -1        98 5.00000E-01 2.50000E-01 8.00000E+00
 -1        99 2.50000E-01 5.00000E-01 8.00000E+00
 -1       100 5.00000E-01 5.00000E-01 8.00000E+00
 -1       101 7.50000E-01 5.00000E-01 8.00000E+00
 -1       102 5.00000E-01 7.50000E-01 8.00000E+00
 -1       124 2.50000E-01 0.00000E+00 6.00000E+00
 -1       125 5.00000E-01 0.00000E+00 6.00000E+00
 -1       126 7.50000E-01 0.00000E+00 6.00000E+00
 -1       127 5.00000E-01 0.00000E+00 6.50000E+00
 -1       128 2.50000E-01 0.00000E+00 7.00000E+00
 -1       129 5.00000E-01 0.00000E+00 7.00000E+00
 -1       130 7.50000E-01 0.00000E+00 7.00000E+00
 -1       131 5.00000E-01 0.00000E+00 7.50000E+00
 -1       153 1.00000E+00 2.50000E-01 6.00000E+00
 -1       154 1.00000E+00 5.00000E-01 6.00000E+00
 -1       155 1.00000E+00 7.50000E-01 6.00000E+00
 -1       156 1.00000E+00 5.00000E-01 6.50000E+00
 -1       157 1.00000E+00 2.50000E-01 7.00000E+00
 -1       158 1.00000E+00 5.00000E-01 7.00000E+00
 -1       159 1.00000E+00 7.50000E-01 7.00000E+00
 -1       160 1.00000E+00 5.00000E-01 7.50000E+00
 -1       182 7.50000E-01 1.00000E+00 6.00000E+00
 -1       183 5.00000E-01 1.00000E+00 6.00000E+00
 -1       184 2.50000E-01 1.00000E+00 6.00000E+00
 -1       185 5.00000E-01 1.00000E+00 6.50000E+00
 -1       186 7.50000E-01 1.00000E+00 7.00000E+00
 -1       187 5.00000E-01 1.00000E+00 7.00000E+00
 -1       188 2.50000E-01 1.00000E+00 7.00000E+00
 -1       189 5.00000E-01 1.00000E+00 7.50000E+00
 -1       211 0.00000E+00 7.50000E-01 6.00000E+00
 -1       212 0.00000E+00 5.00000E-01 6.00000E+00
 -1       213 0.00000E+00 2.50000E-01 6.00000E+00
 -1       214 0.00000E+00 5.00000E-01 6.50000E+00
 -1       215 0.00000E+00 7.50000E-01 7.00000E+00
 -1       216 0.00000E+00 5.00000E-01 7.00000E+00
 -1       217 0.00000E+00 2.50000E-01 7.00000E+00
 -1       218 0.00000E+00 5.00000E-01 7.50000E+00
 -1       250 5.00000E-01 2.50000E-01 6.00000E+00
 -1       251 2.50000E-01 5.00000E-01 6.00000E+00
 -1       252 5.00000E-01 5.00000E-01 6.00000E+00
 -1       253 7.50000E-01 5.00000E-01 6.00000E+00
 -1       254 5.00000E-01 7.50000E-01 6.00000E+00
 -1       255 5.00000E-01 5.00000E-01 6.50000E+00
 -1       256 5.00000E-01 2.50000E-01 7.00000E+00
 -1       257 2.50000E-01 5.00000E-01 7.00000E+00
 -1       258 5.00000E-01 5.00000E-01 7.00000E+00
 -1       259 7.50000E-01 5.00000E-01 7.00000E+00
 -1       260 5.00000E-01 7.50000E-01 7.00000E+00
 -1       261 5.00000E-01 5.00000E-01 7.50000E+00
 -3
    3C                             8                                     1
 -1        25    4    0    1
 -2        51       125       252       212        49       129       258       216       124       250
 -2       251       213        50       127       255       214       128       256       257       217
 -1        26    4    0    1
 -2       125        44       154       252       129        46       158       258       126       153
 -2       253       250       127        45       156       255       130       157       259       256
 -1        27    4    0    1
 -2       212       252       183        89       216       258       187        91       251       254
 -2       184       211       214       255       185        90       257       260       188       215
 -1        28    4    0    1
 -2       252       154        74       183       258       158        76       187       253       155
 -2       182       254       255       156        75       185       259       159       186       260
 -1        29    4    0    1
 -2        49       129       258       216         5        22       100        31       128       256
 -2       257       217        48       131       261       218        21        98        99        32
 -1        30    4    0    1
 -2       129        46       158       258        22         6        25       100       130       157
 -2       259       256       131        47       160       261        23        24       101        98
 -1        31    4    0    1
 -2       216       258       187        91        31       100        28         8       257       260
 -2       188       215       218       261       189        92        99       102        29        30
 -1        32    4    0    1
 -2       258       158        76       187       100        25         7        28       259       159
 -2       186       260       261       160        77       189       101        26        27       102
 -3
    1PSTEP                         1           1           1          
  100CL  101 5.00000E-03          81                     1    1           1
 -4  DISP        4    1
 -5  D1          1    2    1    0
 -5  D2          1    2    2    0
 -5  D3          1    2    3    0
 -5  ALL         1    2    0    0    1ALL
 -1         5 0.00000E+00 0.00000E+00 0.00000E+00
 -1         6 0.00000E+00 0.00000E+00 0.00000E+00
 -1         7 0.00000E+00 0.00000E+00 0.00000E+00
 -1         8 0.00000E+00 0.00000E+00 0.00000E+00
 -1        21 0.00000E+00 0.00000E+00 0.00000E+00
 -1        22 0.00000E+00 0.00000E+00 0.00000E+00
 -1        23 0.00000E+00 0.00000E+00 0.00000E+00
 -1        24 0.00000E+00 0.00000E+00 0.00000E+00
 -1        25 0.00000E+00 0.00000E+00 0.00000E+00
 -1        26 0.00000E+00 0.00000E+00 0.00000E+00
 -1        27 0.00000E+00 0.00000E+00 0.00000E+00
 -1        28 0.00000E+00 0.00000E+00 0.00000E+00
 -1        29 0.00000E+00 0.00000E+00 0.00000E+00
 -1        30 0.00000E+00 0.00000E+00 0.00000E+00
 -1        31 0.00000E+00 0.00000E+00 0.00000E+00
 -1        32 0.00000E+00 0.00000E+00 0.00000E+00
 -1        44-5.98895E-05-3.46446E-03 4.48610E-04
 -1        45 5.69012E-05-2.56164E-03 7.85349E-04
 -1        46-4.78756E-05-1.79561E-03 9.48912E-04
 -1        47 1.31002E-04-6.74960E-04 5.43030E-04
 -1        48-1.31001E-04-6.74960E-04 5.43029E-04
 -1        49 4.78669E-05-1.79561E-03 9.48915E-04
 -1        50-5.68980E-05-2.56165E-03 7.85357E-04
 -1        51 5.98416E-05-3.46444E-03 4.48633E-04
 -1        74 3.18193E-04-4.41103E-03-4.94362E-04
 -1        75 1.90921E-04-2.97155E-03-7.84256E-04
 -1        76-1.10277E-04-1.59759E-03-9.49884E-04
 -1        77-2.07805E-04-5.26667E-04-5.58131E-04
 -1        89-3.18241E-04-4.41104E-03-4.94339E-04
 -1        90-1.90918E-04-2.97155E-03-7.84247E-04
 -1        91 1.10269E-04-1.59759E-03-9.49882E-04
 -1        92 2.07806E-04-5.26667E-04-5.58132E-04
 -1        98 0.00000E+00 0.00000E+00 0.00000E+00
 -1        99 0.00000E+00 0.00000E+00 0.00000E+00
 -1       100 0.00000E+00 0.00000E+00 0.00000E+00
 -1       101 0.00000E+00 0.00000E+00 0.00000E+00
 -1       102 0.00000E+00 0.00000E+00 0.00000E+00
 -1       124 1.49783E-04-2.96577E-03 4.29376E-04
 -1       125-4.53593E-10-3.58897E-03 4.49046E-04
 -1       126-1.49805E-04-2.96577E-03 4.29384E-04
 -1       127-7.27821E-09-2.56230E-03 9.03580E-04
 -1       128-9.17182E-06-1.95255E-03 9.48008E-04
 -1       129 3.35245E-09-1.81420E-03 9.41306E-04
 -1       130 9.17049E-06-1.95255E-03 9.48002E-04
 -1       131-3.21213E-10-7.36393E-04 5.56314E-04
 -1       153 6.99864E-05-3.63480E-03 1.90921E-04
 -1       154-1.20289E-04-2.50155E-03-2.05655E-05
 -1       155-6.51341E-05-3.88767E-03-2.37985E-04
 -1       156-1.20277E-04-2.78921E-03-6.44931E-05
 -1       157-2.06133E-05-1.50873E-03 3.92305E-04
 -1       158 8.84902E-05-1.56655E-03-2.94202E-05
 -1       159 4.67549E-05-1.47535E-03-4.10992E-04
 -1       160 3.98178E-05-6.56508E-04 4.87468E-06
 -1       182 1.14806E-04-2.56228E-03-4.71079E-04
 -1       183-2.15646E-09-4.35472E-03-4.76053E-04
 -1       184-1.14829E-04-2.56229E-03-4.71086E-04
 -1       185-6.77313E-09-2.83295E-03-8.73864E-04
 -1       186-4.41449E-05-2.16204E-03-9.82439E-04
 -1       187 2.95036E-09-1.83141E-03-9.63466E-04
 -1       188 4.41435E-05-2.16204E-03-9.82434E-04
 -1       189-2.60896E-10-7.19892E-04-5.64429E-04
 -1       211 6.51040E-05-3.88767E-03-2.37967E-04
 -1       212 1.20280E-04-2.50155E-03-2.05638E-05
 -1       213-7.00159E-05-3.63479E-03 1.90938E-04
 -1       214 1.20270E-04-2.78921E-03-6.44884E-05
 -1       215-4.67590E-05-1.47535E-03-4.10990E-04
 -1       216-8.84903E-05-1.56655E-03-2.94165E-05
 -1       217 2.06088E-05-1.50873E-03 3.92307E-04
 -1       218-3.98184E-05-6.56508E-04 4.87656E-06
 -1       250-3.02795E-09-4.08140E-03 1.74880E-04
 -1       251 3.02514E-05-2.57175E-03-1.03510E-05
 -1       252-6.89479E-09-3.12408E-03-1.62379E-05
 -1       253-3.02635E-05-2.57175E-03-1.03544E-05
 -1       254-4.12224E-09-4.41269E-03-2.53851E-04
 -1       255-3.07732E-09-2.59864E-03-3.21121E-05
 -1       256 9.64300E-10-1.60741E-03 3.95510E-04
 -1       257-4.11379E-05-1.74913E-03-1.20093E-05
 -1       258-1.04633E-09-1.79042E-03-1.44727E-05
 -1       259 4.11370E-05-1.74913E-03-1.20105E-05
 -1       260 8.12931E-10-1.62246E-03-4.18208E-04
 -1       261 2.34176E-10-7.16984E-04-1.93321E-06
 -3
    1PSTEP                         2           2           1          
  100CL  102 1.00000E-02          81                     1    2           1
 -4  DISP        4    1
 -5  D1          1    2    1    0
 -5  D2          1    2    2    0
 -5  D3          1    2    3    0
 -5  ALL         1    2    0    0    1ALL
 -1         5 0.00000E+00 0.00000E+00 0.00000E+00
 -1         6 0.00000E+00 0.00000E+00 0.00000E+00
 -1         7 0.00000E+00 0.00000E+00 0.00000E+00
 -1         8 0.00000E+00 0.00000E+00 0.00000E+00
 -1        21 0.00000E+00 0.00000E+00 0.00000E+00
 -1        22 0.00000E+00 0.00000E+00 0.00000E+00
 -1        23 0.00000E+00 0.00000E+00 0.00000E+00
 -1        24 0.00000E+00 0.00000E+00 0.00000E+00
 -1        25 0.00000E+00 0.00000E+00 0.00000E+00
 -1        26 0.00000E+00 0.00000E+00 0.00000E+00
 -1        27 0.00000E+00 0.00000E+00 0.00000E+00
 -1        28 0.00000E+00 0.00000E+00 0.00000E+00
 -1        29 0.00000E+00 0.00000E+00 0.00000E+00
 -1        30 0.00000E+00 0.00000E+00 0.00000E+00
 -1        31 0.00000E+00 0.00000E+00 0.00000E+00
 -1        32 0.00000E+00 0.00000E+00 0.00000E+00
 -1        44-1.42526E-04 1.61695E-03-2.33851E-04
 -1        45-3.08872E-05 1.25383E-03-3.77189E-04
 -1        46 3.97687E-05 9.11784E-04-4.32338E-04
 -1        47-5.52422E-05 3.68404E-04-2.83857E-04
 -1        48 5.52418E-05 3.68408E-04-2.83876E-04
 -1        49-3.97935E-05 9.11795E-04-4.32361E-04
 -1        50 3.09489E-05 1.25381E-03-3.77161E-04
 -1        51 1.42590E-04 1.61684E-03-2.33833E-04
 -1        74 1.53886E-04 1.60812E-03 2.34087E-04
 -1        75 3.68328E-05 1.24854E-03 3.77252E-04
 -1        76-4.12989E-05 9.13226E-04 4.32407E-04
 -1        77 5.36886E-05 3.69695E-04 2.83943E-04
 -1        89-1.53834E-04 1.60821E-03 2.34104E-04
 -1        90-3.67716E-05 1.24856E-03 3.77282E-04
 -1        91 4.12727E-05 9.13211E-04 4.32384E-04
 -1        92-5.36897E-05 3.69691E-04 2.83923E-04
 -1        98 0.00000E+00 0.00000E+00 0.00000E+00
 -1        99 0.00000E+00 0.00000E+00 0.00000E+00
 -1       100 0.00000E+00 0.00000E+00 0.00000E+00
 -1       101 0.00000E+00 0.00000E+00 0.00000E+00
 -1       102 0.00000E+00 0.00000E+00 0.00000E+00
 -1       124-3.20511E-06 1.47691E-03-2.20426E-04
 -1       125 7.14383E-08 1.77018E-03-2.31131E-04
 -1       126 3.28757E-06 1.47692E-03-2.20394E-04
 -1       127-1.58069E-09 1.30036E-03-4.16427E-04
 -1       128-1.74774E-06 9.59647E-04-4.63495E-04
 -1       129 1.73459E-08 8.89325E-04-4.71885E-04
 -1       130 1.75844E-06 9.59651E-04-4.63494E-04
 -1       131-3.82110E-09 3.75653E-04-2.76074E-04
 -1       153 1.21382E-04 1.92298E-03-1.03738E-04
 -1       154 2.65967E-06 1.69197E-03 1.07166E-07
 -1       155-1.25395E-04 1.90750E-03 1.04083E-04
 -1       156 2.72661E-07 1.40701E-03-3.87676E-07
 -1       157-2.42427E-05 7.90827E-04-1.86102E-04
 -1       158-9.69023E-07 8.08995E-04-1.35612E-07
 -1       159 2.49768E-05 7.94110E-04 1.86274E-04
 -1       160-6.75605E-08 3.08098E-04-2.28916E-08
 -1       182 1.32971E-05 1.47960E-03 2.20579E-04
 -1       183 6.74683E-08 1.76869E-03 2.31333E-04
 -1       184-1.32238E-05 1.47960E-03 2.20542E-04
 -1       185-3.42741E-09 1.30165E-03 4.17818E-04
 -1       186-4.97931E-06 9.59698E-04 4.63579E-04
 -1       187 1.74835E-08 8.90959E-04 4.72482E-04
 -1       188 4.98939E-06 9.59700E-04 4.63579E-04
 -1       189-4.05611E-09 3.75522E-04 2.76105E-04
 -1       211 1.25414E-04 1.90758E-03 1.04051E-04
 -1       212-2.60957E-06 1.69197E-03 1.80734E-07
 -1       213-1.21356E-04 1.92289E-03-1.03777E-04
 -1       214-2.87776E-07 1.40700E-03-3.96096E-07
 -1       215-2.49689E-05 7.94098E-04 1.86274E-04
 -1       216 9.98355E-07 8.08996E-04-1.49404E-07
 -1       217 2.42510E-05 7.90839E-04-1.86100E-04
 -1       218 6.73825E-08 3.08098E-04-2.08445E-08
 -1       250 1.47741E-08 1.90616E-03-1.03016E-04
 -1       251 5.79489E-06 1.20895E-03 2.53708E-07
 -1       252-5.68337E-08 1.54388E-03 2.86449E-07
 -1       253-5.81628E-06 1.20895E-03 1.68386E-07
 -1       254 1.30601E-08 1.91940E-03 1.03306E-04
 -1       255 1.50350E-08 1.37475E-03 1.62321E-07
 -1       256 1.49330E-09 7.84496E-04-2.07120E-04
 -1       257-1.06150E-06 9.13831E-04 8.13276E-08
 -1       258-1.15383E-08 8.12636E-04 6.23714E-08
 -1       259 1.06060E-06 9.13831E-04 9.98659E-08
 -1       260 1.48109E-09 7.82201E-04 2.07196E-04
 -1       261 5.56133E-09 3.48397E-04-2.67743E-09
 -3
    1PSTEP                         3           3           1          
  100CL  103 1.50000E-02          81                     1    3           1
 -4  DISP        4    1
 -5  D1          1    2    1    0
 -5  D2          1    2    2    0
 -5  D3          1    2    3    0
 -5  ALL         1    2    0    0    1ALL
 -1         5 0.00000E+00 0.00000E+00 0.00000E+00
 -1         6 0.00000E+00 0.00000E+00 0.00000E+00
 -1         7 0.00000E+00 0.00000E+00 0.00000E+00
 -1         8 0.00000E+00 0.00000E+00 0.00000E+00
 -1        21 0.00000E+00 0.00000E+00 0.00000E+00
 -1        22 0.00000E+00 0.00000E+00 0.00000E+00
 -1        23 0.00000E+00 0.00000E+00 0.00000E+00
 -1        24 0.00000E+00 0.00000E+00 0.00000E+00
 -1        25 0.00000E+00 0.00000E+00 0.00000E+00
 -1        26 0.00000E+00 0.00000E+00 0.00000E+00
 -1        27 0.00000E+00 0.00000E+00 0.00000E+00
 -1        28 0.00000E+00 0.00000E+00 0.00000E+00
 -1        29 0.00000E+00 0.00000E+00 0.00000E+00
 -1        30 0.00000E+00 0.00000E+00 0.00000E+00
 -1        31 0.00000E+00 0.00000E+00 0.00000E+00
 -1        32 0.00000E+00 0.00000E+00 0.00000E+00
 -1        44 1.11899E-04-1.28116E-03 1.84994E-04
 -1        45 2.39729E-05-9.93278E-04 2.98553E-04
 -1        46-3.10544E-05-7.21587E-04 3.42224E-04
 -1        47 4.38799E-05-2.91687E-04 2.24732E-04
 -1        48-4.38684E-05-2.91691E-04 2.24758E-04
 -1        49 3.10802E-05-7.21671E-04 3.42263E-04
 -1        50-2.40799E-05-9.93158E-04 2.98510E-04
 -1        51-1.12259E-04-1.28105E-03 1.85202E-04
 -1        74-1.18378E-04-1.27396E-03-1.84969E-04
 -1        75-2.78894E-05-9.89340E-04-2.98460E-04
 -1        76 3.22047E-05-7.22805E-04-3.42373E-04
 -1        77-4.28872E-05-2.92743E-04-2.24814E-04
 -1        89 1.18406E-04-1.27436E-03-1.85236E-04
 -1        90 2.76655E-05-9.89362E-04-2.98585E-04
 -1        91-3.20764E-05-7.22807E-04-3.42288E-04
 -1        92 4.28855E-05-2.92726E-04-2.24732E-04
 -1        98 0.00000E+00 0.00000E+00 0.00000E+00
 -1        99 0.00000E+00 0.00000E+00 0.00000E+00
 -1       100 0.00000E+00 0.00000E+00 0.00000E+00
 -1       101 0.00000E+00 0.00000E+00 0.00000E+00
 -1       102 0.00000E+00 0.00000E+00 0.00000E+00
 -1       124 6.98928E-07-1.16906E-03 1.74369E-04
 -1       125-1.40369E-07-1.40150E-03 1.83006E-04
 -1       126-9.50146E-07-1.16899E-03 1.74272E-04
 -1       127-1.25513E-08-1.02947E-03 3.29522E-04
 -1       128 1.65473E-06-7.60089E-04 3.66924E-04
 -1       129-2.54525E-08-7.04518E-04 3.73475E-04
 -1       130-1.68402E-06-7.60073E-04 3.66907E-04
 -1       131 8.97136E-09-2.97645E-04 2.18654E-04
 -1       153-9.57237E-05-1.52057E-03 8.20491E-05
 -1       154-1.13712E-06-1.33930E-03 8.11333E-08
 -1       155 9.77653E-05-1.51066E-03-8.22080E-05
 -1       156 2.22253E-07-1.11440E-03 3.13403E-07
 -1       157 1.90597E-05-6.26449E-04 1.47383E-04
 -1       158 2.67684E-07-6.40361E-04 1.40458E-07
 -1       159-1.94996E-05-6.28486E-04-1.47439E-04
 -1       160-7.46394E-08-2.44045E-04 1.26244E-08
 -1       182-8.63043E-06-1.17148E-03-1.74480E-04
 -1       183-2.44393E-07-1.39849E-03-1.82837E-04
 -1       184 8.45053E-06-1.17153E-03-1.74365E-04
 -1       185 3.47318E-08-1.02942E-03-3.30262E-04
 -1       186 3.60590E-06-7.59579E-04-3.66862E-04
 -1       187-6.76434E-08-7.05473E-04-3.73782E-04
 -1       188-3.62544E-06-7.59608E-04-3.66879E-04
 -1       189 1.57261E-08-2.97642E-04-2.18687E-04
 -1       211-9.77466E-05-1.51089E-03-8.21133E-05
 -1       212 9.69964E-07-1.33920E-03-1.17088E-07
 -1       213 9.55555E-05-1.52036E-03 8.21778E-05
 -1       214-1.61059E-07-1.11443E-03 3.38844E-07
 -1       215 1.95025E-05-6.28454E-04-1.47456E-04
 -1       216-3.52816E-07-6.40330E-04 1.75069E-07
 -1       217-1.91066E-05-6.26493E-04 1.47389E-04
 -1       218 7.87025E-08-2.44050E-04 7.56027E-10
 -1       250-5.03031E-09-1.51154E-03 8.15234E-05
 -1       251-3.54222E-06-9.56787E-04-1.16378E-07
 -1       252 1.75736E-07-1.22379E-03-1.46926E-07
 -1       253 3.60674E-06-9.56832E-04 1.44743E-07
 -1       254-5.57663E-08-1.51840E-03-8.15588E-05
 -1       255-4.33076E-08-1.08863E-03-2.95696E-08
 -1       256 1.25760E-08-6.21061E-04 1.63938E-04
 -1       257 7.54930E-07-7.23731E-04-1.55610E-08
 -1       258 4.06938E-08-6.43551E-04 1.81172E-09
 -1       259-7.45475E-07-7.23749E-04-7.14988E-08
 -1       260-9.83135E-09-6.19688E-04-1.63913E-04
 -1       261-1.56035E-08-2.75872E-04 1.09161E-08
 -3
    1PSTEP                         4           4           1          
  100CL  104 2.00000E-02          81                     1    4           1
 -4  DISP        4    1
 -5  D1          1    2    1    0
 -5  D2          1    2    2    0
 -5  D3          1    2    3    0
 -5  ALL         1    2    0    0    1ALL
 -1         5 0.00000E+00 0.00000E+00 0.00000E+00
 -1         6 0.00000E+00 0.00000E+00 0.00000E+00
 -1         7 0.00000E+00 0.00000E+00 0.00000E+00
 -1         8 0.00000E+00 0.00000E+00 0.00000E+00
 -1        21 0.00000E+00 0.00000E+00 0.00000E+00
 -1        22 0.00000E+00 0.00000E+00 0.00000E+00
 -1        23 0.00000E+00 0.00000E+00 0.00000E+00
 -1        24 0.00000E+00 0.00000E+00 0.00000E+00
 -1        25 0.00000E+00 0.00000E+00 0.00000E+00
 -1        26 0.00000E+00 0.00000E+00 0.00000E+00
 -1        27 0.00000E+00 0.00000E+00 0.00000E+00
 -1        28 0.00000E+00 0.00000E+00 0.00000E+00
 -1        29 0.00000E+00 0.00000E+00 0.00000E+00
 -1        30 0.00000E+00 0.00000E+00 0.00000E+00
 -1        31 0.00000E+00 0.00000E+00 0.00000E+00
 -1        32 0.00000E+00 0.00000E+00 0.00000E+00
 -1        44-8.84081E-05 9.93815E-04-1.43889E-04
 -1        45-1.89595E-05 7.71124E-04-2.31417E-04
 -1        46 2.44098E-05 5.60322E-04-2.65688E-04
 -1        47-3.40108E-05 2.26457E-04-1.74534E-04
 -1        48 3.40268E-05 2.26472E-04-1.74592E-04
 -1        49-2.44375E-05 5.60334E-04-2.65763E-04
 -1        50 1.91588E-05 7.71115E-04-2.31391E-04
 -1        51 8.83742E-05 9.93710E-04-1.43760E-04
 -1        74 9.43688E-05 9.87240E-04 1.43868E-04
 -1        75 2.25366E-05 7.67569E-04 2.31452E-04
 -1        76-2.53756E-05 5.61387E-04 2.65760E-04
 -1        77 3.31124E-05 2.27439E-04 1.74573E-04
 -1        89-9.41520E-05 9.87354E-04 1.43812E-04
 -1        90-2.23752E-05 7.67609E-04 2.31436E-04
 -1        91 2.54007E-05 5.61371E-04 2.65708E-04
 -1        92-3.30942E-05 2.27432E-04 1.74535E-04
 -1        98 0.00000E+00 0.00000E+00 0.00000E+00
 -1        99 0.00000E+00 0.00000E+00 0.00000E+00
 -1       100 0.00000E+00 0.00000E+00 0.00000E+00
 -1       101 0.00000E+00 0.00000E+00 0.00000E+00
 -1       102 0.00000E+00 0.00000E+00 0.00000E+00
 -1       124-1.28769E-06 9.07718E-04-1.35526E-04
 -1       125 1.56651E-07 1.08916E-03-1.41937E-04
 -1       126 1.41456E-06 9.07699E-04-1.35405E-04
 -1       127 6.79769E-09 7.99567E-04-2.56284E-04
 -1       128-1.06789E-06 5.90118E-04-2.84943E-04
 -1       129 6.22867E-08 5.46887E-04-2.90114E-04
 -1       130 1.12143E-06 5.90124E-04-2.84948E-04
 -1       131-1.60524E-09 2.31065E-04-1.69779E-04
 -1       153 7.51194E-05 1.18067E-03-6.38348E-05
 -1       154 9.19045E-07 1.04059E-03-3.00180E-08
 -1       155-7.70418E-05 1.17178E-03 6.38244E-05
 -1       156-1.09087E-07 8.66194E-04-3.54710E-07
 -1       157-1.50232E-05 4.86075E-04-1.14440E-04
 -1       158-2.55456E-07 4.96536E-04-1.02505E-07
 -1       159 1.54556E-05 4.87874E-04 1.14535E-04
 -1       160 8.01022E-08 1.89238E-04 2.08089E-08
 -1       182 7.31893E-06 9.09961E-04 1.35449E-04
 -1       183 1.52859E-07 1.08647E-03 1.41810E-04
 -1       184-7.08205E-06 9.09961E-04 1.35393E-04
 -1       185 4.28542E-08 7.99524E-04 2.56970E-04
 -1       186-2.81688E-06 5.89633E-04 2.84904E-04
 -1       187 4.68630E-08 5.47713E-04 2.90373E-04
 -1       188 2.88208E-06 5.89636E-04 2.84887E-04
 -1       189 3.61293E-09 2.31038E-04 1.69779E-04
 -1       211 7.71543E-05 1.17188E-03 6.37626E-05
 -1       212-8.43748E-07 1.04063E-03 7.29436E-08
 -1       213-7.51453E-05 1.18060E-03-6.38284E-05
 -1       214 2.04133E-07 8.66207E-04-3.89033E-07
 -1       215-1.54068E-05 4.87861E-04 1.14503E-04
 -1       216 3.14718E-07 4.96539E-04-1.55700E-07
 -1       217 1.50485E-05 4.86089E-04-1.14477E-04
 -1       218-5.91456E-08 1.89240E-04-3.89739E-09
 -1       250 1.01042E-07 1.17485E-03-6.33682E-05
 -1       251 3.36315E-06 7.42439E-04 1.02188E-07
 -1       252 2.16869E-08 9.52005E-04-7.88365E-08
 -1       253-3.28801E-06 7.42430E-04 5.73065E-08
 -1       254 9.82346E-08 1.18113E-03 6.32115E-05
 -1       255 4.48368E-08 8.45146E-04-2.76222E-08
 -1       256 4.11836E-08 4.82276E-04-1.27325E-04
 -1       257-6.65132E-07 5.62140E-04-8.73855E-09
 -1       258 2.38101E-08 4.99884E-04 9.89886E-09
 -1       259 7.13345E-07 5.62136E-04 1.67368E-08
 -1       260 3.34874E-08 4.81002E-04 1.27298E-04
 -1       261 1.23099E-08 2.14145E-04 3.92897E-09
 -3
    1PSTEP                         5           5           1          
  100CL  105 2.50000E-02          81                     1    5           1
 -4  DISP        4    1
 -5  D1          1    2    1    0
 -5  D2          1    2    2    0
 -5  D3          1    2    3    0
 -5  ALL         1    2    0    0    1ALL
 -1         5 0.00000E+00 0.00000E+00 0.00000E+00
 -1         6 0.00000E+00 0.00000E+00 0.00000E+00
 -1         7 0.00000E+00 0.00000E+00 0.00000E+00
 -1         8 0.00000E+00 0.00000E+00 0.00000E+00
 -1        21 0.00000E+00 0.00000E+00 0.00000E+00
 -1        22 0.00000E+00 0.00000E+00 0.00000E+00
 -1        23 0.00000E+00 0.00000E+00 0.00000E+00
 -1        24 0.00000E+00 0.00000E+00 0.00000E+00
 -1        25 0.00000E+00 0.00000E+00 0.00000E+00
 -1        26 0.00000E+00 0.00000E+00 0.00000E+00
 -1        27 0.00000E+00 0.00000E+00 0.00000E+00
 -1        28 0.00000E+00 0.00000E+00 0.00000E+00
 -1        29 0.00000E+00 0.00000E+00 0.00000E+00
 -1        30 0.00000E+00 0.00000E+00 0.00000E+00
 -1        31 0.00000E+00 0.00000E+00 0.00000E+00
 -1        32 0.00000E+00 0.00000E+00 0.00000E+00
 -1        44 6.66518E-05-7.50661E-04 1.08474E-04
 -1        45 1.41732E-05-5.82297E-04 1.74788E-04
 -1        46-1.83247E-05-4.22625E-04 2.00393E-04
 -1        47 2.56827E-05-1.70900E-04 1.31730E-04
 -1        48-2.56867E-05-1.70911E-04 1.31773E-04
 -1        49 1.83549E-05-4.22632E-04 2.00444E-04
 -1        50-1.43002E-05-5.82283E-04 1.74754E-04
 -1        51-6.68089E-05-7.50433E-04 1.08435E-04
 -1        74-7.15374E-05-7.45589E-04-1.08485E-04
 -1        75-1.69222E-05-5.79627E-04-1.74791E-04
 -1        76 1.91716E-05-4.23460E-04-2.00423E-04
 -1        77-2.49739E-05-1.71638E-04-1.31758E-04
 -1        89 7.14551E-05-7.45681E-04-1.08492E-04
 -1        90 1.67832E-05-5.79684E-04-1.74827E-04
 -1        91-1.91396E-05-4.23425E-04-2.00376E-04
 -1        92 2.49703E-05-1.71631E-04-1.31723E-04
 -1        98 0.00000E+00 0.00000E+00 0.00000E+00
 -1        99 0.00000E+00 0.00000E+00 0.00000E+00
 -1       100 0.00000E+00 0.00000E+00 0.00000E+00
 -1       101 0.00000E+00 0.00000E+00 0.00000E+00
 -1       102 0.00000E+00 0.00000E+00 0.00000E+00
 -1       124 2.41919E-07-6.84958E-04 1.02215E-04
 -1       125-1.46218E-07-8.21930E-04 1.07146E-04
 -1       126-4.31605E-07-6.84998E-04 1.02169E-04
 -1       127-1.08375E-08-6.03495E-04 1.93189E-04
 -1       128 9.43387E-07-4.45311E-04 2.15028E-04
 -1       129-3.35438E-08-4.12729E-04 2.18966E-04
 -1       130-9.71225E-07-4.45322E-04 2.15019E-04
 -1       131 5.05490E-09-1.74353E-04 1.28113E-04
 -1       153-5.71067E-05-8.91526E-04 4.81040E-05
 -1       154-8.70166E-07-7.86948E-04 1.63876E-08
 -1       155 5.85459E-05-8.85015E-04-4.81767E-05
 -1       156 7.06318E-08-6.53533E-04 2.32449E-07
 -1       157 1.14590E-05-3.67027E-04 8.63331E-05
 -1       158 2.05824E-07-3.75045E-04 8.60276E-08
 -1       159-1.18108E-05-3.68341E-04-8.63742E-05
 -1       160-3.97244E-08-1.42775E-04-1.19378E-09
 -1       182-6.04025E-06-6.86623E-04-1.02199E-04
 -1       183-1.28765E-07-8.20155E-04-1.07207E-04
 -1       184 5.90042E-06-6.86585E-04-1.02109E-04
 -1       185-3.51846E-09-6.03516E-04-1.93733E-04
 -1       186 2.23317E-06-4.44967E-04-2.14990E-04
 -1       187-4.13079E-08-4.13291E-04-2.19146E-04
 -1       188-2.26703E-06-4.44966E-04-2.14990E-04
 -1       189 4.56574E-09-1.74314E-04-1.28106E-04
 -1       211-5.85781E-05-8.85131E-04-4.81474E-05
 -1       212 7.61846E-07-7.86981E-04-9.33780E-08
 -1       213 5.70167E-05-8.91381E-04 4.82036E-05
 -1       214-8.00018E-08-6.53511E-04 2.58693E-07
 -1       215 1.17854E-05-3.68324E-04-8.63557E-05
 -1       216-2.64157E-07-3.75066E-04 1.20616E-07
 -1       217-1.14821E-05-3.67051E-04 8.63354E-05
 -1       218 3.42712E-08-1.42774E-04 3.12899E-09
 -1       250-5.14154E-08-8.86383E-04 4.77817E-05
 -1       251-2.27147E-06-5.60405E-04-1.24663E-07
 -1       252 6.58370E-08-7.17580E-04-2.73531E-08
 -1       253 2.26625E-06-5.60382E-04-2.97466E-09
 -1       254-4.61897E-08-8.90923E-04-4.77539E-05
 -1       255-3.55781E-08-6.38135E-04 6.98826E-09
 -1       256-1.04257E-08-3.63775E-04 9.61071E-05
 -1       257 4.65431E-07-4.24325E-04 7.82264E-09
 -1       258 8.89749E-09-3.76964E-04-1.12995E-09
 -1       259-4.79064E-07-4.24315E-04-2.55778E-08
 -1       260-1.33810E-08-3.62857E-04-9.60883E-05
 -1       261-1.08752E-08-1.61636E-04 1.08504E-09
 -3
    1PSTEP                         6           6           1          
  100CL  106 3.00000E-02          81                     1    6           1
 -4  DISP        4    1
 -5  D1          1    2    1    0
 -5  D2          1    2    2    0
 -5  D3          1    2    3    0
 -5  ALL         1    2    0    0    1ALL
 -1         5 0.00000E+00 0.00000E+00 0.00000E+00
 -1         6 0.00000E+00 0.00000E+00 0.00000E+00
 -1         7 0.00000E+00 0.00000E+00 0.00000E+00
 -1         8 0.00000E+00 0.00000E+00 0.00000E+00
 -1        21 0.00000E+00 0.00000E+00 0.00000E+00
 -1        22 0.00000E+00 0.00000E+00 0.00000E+00
 -1        23 0.00000E+00 0.00000E+00 0.00000E+00
 -1        24 0.00000E+00 0.00000E+00 0.00000E+00
 -1        25 0.00000E+00 0.00000E+00 0.00000E+00
 -1        26 0.00000E+00 0.00000E+00 0.00000E+00
 -1        27 0.00000E+00 0.00000E+00 0.00000E+00
 -1        28 0.00000E+00 0.00000E+00 0.00000E+00
 -1        29 0.00000E+00 0.00000E+00 0.00000E+00
 -1        30 0.00000E+00 0.00000E+00 0.00000E+00
 -1        31 0.00000E+00 0.00000E+00 0.00000E+00
 -1        32 0.00000E+00 0.00000E+00 0.00000E+00
 -1        44-5.03861E-05 5.42340E-04-7.87795E-05
 -1        45-1.12481E-05 4.21212E-04-1.26859E-04
 -1        46 1.38465E-05 3.07389E-04-1.45372E-04
 -1        47-1.83298E-05 1.24380E-04-9.56501E-05