
 displacements (vx,vy,vz) for set NALL and time  0.5000000E-02

         5  0.000000E+00  0.000000E+00  0.000000E+00
         6  0.000000E+00  0.000000E+00  0.000000E+00
         7  0.000000E+00  0.000000E+00  0.000000E+00
         8  0.000000E+00  0.000000E+00  0.000000E+00
        21  0.000000E+00  0.000000E+00  0.000000E+00
        22  0.000000E+00  0.000000E+00  0.000000E+00
        23  0.000000E+00  0.000000E+00  0.000000E+00
        24  0.000000E+00  0.000000E+00  0.000000E+00
        25  0.000000E+00  0.000000E+00  0.000000E+00
        26  0.000000E+00  0.000000E+00  0.000000E+00
        27  0.000000E+00  0.000000E+00  0.000000E+00
        28  0.000000E+00  0.000000E+00  0.000000E+00
        29  0.000000E+00  0.000000E+00  0.000000E+00
        30  0.000000E+00  0.000000E+00  0.000000E+00
        31  0.000000E+00  0.000000E+00  0.000000E+00
        32  0.000000E+00  0.000000E+00  0.000000E+00
        44 -6.046887E-05 -3.466676E-03  4.485981E-04
        45  5.665192E-05 -2.562810E-03  7.859631E-04
        46 -4.753953E-05 -1.795441E-03  9.493622E-04
        47  1.310144E-04 -6.749735E-04  5.432138E-04
        48 -1.310131E-04 -6.749728E-04  5.432116E-04
        49  4.754464E-05 -1.795441E-03  9.493578E-04
        50 -5.664125E-05 -2.562810E-03  7.859562E-04
        51  6.048818E-05 -3.466673E-03  4.485883E-04
        74  3.201179E-04 -4.414476E-03 -4.945309E-04
        75  1.917948E-04 -2.973395E-03 -7.850966E-04
        76 -1.108033E-04 -1.597037E-03 -9.499829E-04
        77 -2.080334E-04 -5.264913E-04 -5.582091E-04
        89 -3.200984E-04 -4.414477E-03 -4.945400E-04
        90 -1.917841E-04 -2.973395E-03 -7.851032E-04
        91  1.108083E-04 -1.597038E-03 -9.499873E-04
        92  2.080347E-04 -5.264921E-04 -5.582114E-04
        98  0.000000E+00  0.000000E+00  0.000000E+00
        99  0.000000E+00  0.000000E+00  0.000000E+00
       100  0.000000E+00  0.000000E+00  0.000000E+00
       101  0.000000E+00  0.000000E+00  0.000000E+00
       102  0.000000E+00  0.000000E+00  0.000000E+00
       124  1.483626E-04 -2.966602E-03  4.298001E-04
       125  9.110146E-09 -3.589008E-03  4.487240E-04
       126 -1.483437E-04 -2.966603E-03  4.298046E-04
       127  5.208882E-09 -2.562396E-03  9.034373E-04
       128 -8.872576E-06 -1.952887E-03  9.482545E-04
       129  2.432213E-09 -1.814899E-03  9.416621E-04
       130  8.877404E-06 -1.952888E-03  9.482568E-04
       131  4.985848E-10 -7.364758E-04  5.564214E-04
       153  7.017587E-05 -3.636455E-03  1.913235E-04
       154 -1.201866E-04 -2.504528E-03 -2.080450E-05
       155 -6.550187E-05 -3.890013E-03 -2.380153E-04
       156 -1.203497E-04 -2.789117E-03 -6.462649E-05
       157 -2.052613E-05 -1.509298E-03  3.924200E-04
       158  8.849114E-05 -1.567452E-03 -2.943417E-05
       159  4.679054E-05 -1.475741E-03 -4.110941E-04
       160  3.984193E-05 -6.565261E-04  4.896262E-06
       182  1.142863E-04 -2.562520E-03 -4.712227E-04
       183  9.035797E-09 -4.355334E-03 -4.764547E-04
       184 -1.142675E-04 -2.562520E-03 -4.712269E-04
       185  5.287673E-09 -2.833145E-03 -8.736198E-04
       186 -4.401611E-05 -2.162479E-03 -9.827352E-04
       187  2.371952E-09 -1.832007E-03 -9.638060E-04
       188  4.402090E-05 -2.162479E-03 -9.827374E-04
       189  4.991078E-10 -7.199496E-04 -5.645333E-04
       211  6.551974E-05 -3.890014E-03 -2.380235E-04
       212  1.202050E-04 -2.504528E-03 -2.081194E-05
       213 -7.015760E-05 -3.636454E-03  1.913152E-04
       214  1.203618E-04 -2.789117E-03 -6.463288E-05
       215 -4.678540E-05 -1.475741E-03 -4.110987E-04
       216 -8.848669E-05 -1.567452E-03 -2.943890E-05
       217  2.053119E-05 -1.509298E-03  3.924153E-04
       218 -3.984026E-05 -6.565260E-04  4.893941E-06
       250  9.575768E-09 -4.082033E-03  1.744409E-04
       251  3.050616E-05 -2.572562E-03 -1.040952E-05
       252  9.614215E-09 -3.122401E-03 -1.588138E-05
       253 -3.048803E-05 -2.572562E-03 -1.040500E-05
       254  9.411011E-09 -4.412884E-03 -2.540572E-04
       255  5.216349E-09 -2.599803E-03 -3.206220E-05
       256  2.561274E-09 -1.607219E-03  3.957025E-04
       257 -4.119634E-05 -1.749378E-03 -1.200602E-05
       258  2.691827E-09 -1.790054E-03 -1.454039E-05
       259  4.120131E-05 -1.749378E-03 -1.200386E-05
       260  2.559244E-09 -1.622386E-03 -4.183298E-04
       261  6.276991E-10 -7.170978E-04 -1.970971E-06

 forces (fx,fy,fz) for set NALL and time  0.5000000E-02

         5  2.287126E+00 -4.176775E+00 -1.103364E+00
         6 -2.287142E+00 -4.176763E+00 -1.103366E+00
         7  3.453599E+00  1.088266E+00  1.267900E+00
         8 -3.453618E+00  1.088280E+00  1.267902E+00
        21 -2.765809E+00  5.575152E+00 -1.789795E+01
        22 -7.364751E-06 -9.887099E+00 -6.617981E-01
        23  2.765833E+00  5.575155E+00 -1.789799E+01
        24 -4.633858E+00  1.710669E+01 -1.021802E+01
        25  8.558324E-01 -1.150346E+01 -4.609759E-01
        26  2.147182E+00  1.341486E+01  1.050496E+01
        27 -1.803115E+00 -4.492554E-01  1.759929E+01
        28 -9.027025E-06 -1.597371E+00  1.781551E+00
        29  1.803143E+00 -4.492556E-01  1.759933E+01
        30 -2.147185E+00  1.341485E+01  1.050501E+01
        31 -8.558651E-01 -1.150346E+01 -4.609793E-01
        32  4.633853E+00  1.710670E+01 -1.021797E+01
        44  1.871765E+00  5.185949E+01  1.429093E+00
        45 -7.131318E-06 -6.080380E-01  1.525634E-01
        46  5.450896E-06  1.541473E+00 -4.634098E-01
        47 -1.911844E-06 -1.167011E+00  5.403038E-01
        48  2.089461E-06 -1.167010E+00  5.403044E-01
        49 -4.880351E-06  1.541474E+00 -4.634100E-01
        50  5.313681E-06 -6.080403E-01  1.525630E-01
        51 -1.871729E+00  5.185953E+01  1.429090E+00
        74 -7.336698E+00  1.753779E+01 -9.844444E-01
        75  6.456209E-07 -6.081234E-01 -1.525356E-01
        76 -1.637876E-06  1.541534E+00  4.634018E-01
        77  4.014525E-06 -1.167024E+00 -5.403001E-01
        89  7.336753E+00  1.753774E+01 -9.844387E-01
        90 -3.467970E-06 -6.081198E-01 -1.525355E-01
        91  2.119438E-06  1.541534E+00  4.634019E-01
        92 -3.430538E-06 -1.167026E+00 -5.403000E-01
        98 -3.293770E-06  3.798629E+01 -1.717963E+01
        99 -2.309865E-01 -7.608957E+00  6.530449E-01
       100 -3.384266E-05 -2.291321E+01 -3.820250E-01
       101  2.310494E-01 -7.608955E+00  6.529723E-01
       102 -1.796906E-06  3.527309E+01  1.649888E+01
       124  1.691986E+01  1.974052E+01 -6.037176E-01
       125  1.418560E-05  1.115003E+02  2.957612E+00
       126 -1.691989E+01  1.974057E+01 -6.036924E-01
       127  4.398408E-07 -1.216077E+00  3.051177E-01
       128  4.557338E-06 -2.615777E+00  9.358650E-01
       129 -1.977979E-07  3.082946E+00 -9.268166E-01
       130 -5.016805E-06 -2.615776E+00  9.358641E-01
       131  5.295605E-07 -2.334021E+00  1.080606E+00
       153  1.155116E+01 -1.326404E+02 -2.293065E+00
       154 -2.870475E+00  9.848284E+01  4.291499E-01
       155  4.081481E+00 -1.082049E+02  1.404917E+00
       156 -1.171618E-05 -1.216153E+00 -2.478955E-05
       157 -7.607184E-06 -2.615785E+00  7.018891E-01
       158  5.803688E-06  3.083006E+00  1.159795E-05
       159 -1.389641E-07 -2.615848E+00 -7.018921E-01
       160 -1.208058E-06 -2.334038E+00 -3.363792E-06
       182  7.879567E+00  6.536532E+01  4.118801E-01
       183  2.715994E-05  5.158768E+01 -1.383433E+00
       184 -7.879611E+00  6.536538E+01  4.118482E-01
       185  1.291349E-06 -6.742573E+00 -3.050653E-01
       186  2.521120E-06 -8.142179E+00 -9.358385E-01
       187 -4.799359E-07 -2.443243E+00  9.268048E-01
       188 -2.878679E-06 -8.142177E+00 -9.358381E-01
       189  4.008575E-07 -7.860373E+00 -1.080595E+00
       211 -4.081540E+00 -1.082049E+02  1.404875E+00
       212  2.870595E+00  9.848283E+01  4.291774E-01
       213 -1.155120E+01 -1.326404E+02 -2.293095E+00
       214  9.290960E-06 -1.216154E+00 -2.298063E-05
       215 -1.520315E-06 -2.615846E+00 -7.018923E-01
       216 -4.644107E-06  3.083005E+00  1.076122E-05
       217  6.236492E-06 -2.615787E+00  7.018893E-01
       218  5.972365E-07 -2.334038E+00 -4.638785E-06
       250  1.440052E-05 -2.938180E+02 -5.869605E+00
       251  5.250538E+00  8.826886E+01  5.491298E-01
       252  1.025633E-04  2.056939E+02  1.303181E+00
       253 -5.250718E+00  8.826883E+01  5.492246E-01
       254 -2.251682E-06 -2.683156E+02  1.559555E+00
       255  3.291446E-06 -2.432314E+00 -6.072733E-05
       256  8.448432E-07 -5.231571E+00  1.403768E+00
       257  7.240952E-06 -5.231633E+00 -2.667987E-05
       258 -6.528278E-07  6.166016E+00  2.392870E-05
       259 -6.920867E-06 -5.231632E+00 -2.695524E-05
       260  1.693371E-06 -5.231707E+00 -1.403780E+00
       261 -4.982046E-07 -4.668080E+00 -9.360839E-06

 displacements (vx,vy,vz) for set NALL and time  0.1000000E-01

         5  0.000000E+00  0.000000E+00  0.000000E+00
         6  0.000000E+00  0.000000E+00  0.000000E+00
         7  0.000000E+00  0.000000E+00  0.000000E+00
         8  0.000000E+00  0.000000E+00  0.000000E+00
        21  0.000000E+00  0.000000E+00  0.000000E+00
        22  0.000000E+00  0.000000E+00  0.000000E+00
        23  0.000000E+00  0.000000E+00  0.000000E+00
        24  0.000000E+00  0.000000E+00  0.000000E+00
        25  0.000000E+00  0.000000E+00  0.000000E+00
        26  0.000000E+00  0.000000E+00  0.000000E+00
        27  0.000000E+00  0.000000E+00  0.000000E+00
        28  0.000000E+00  0.000000E+00  0.000000E+00
        29  0.000000E+00  0.000000E+00  0.000000E+00
        30  0.000000E+00  0.000000E+00  0.000000E+00
        31  0.000000E+00  0.000000E+00  0.000000E+00
        32  0.000000E+00  0.000000E+00  0.000000E+00
        44 -1.490038E-04  1.611256E-03 -2.339405E-04
        45 -3.406958E-05  1.250548E-03 -3.771369E-04
        46  4.087433E-05  9.131535E-04 -4.323381E-04
        47 -5.432153E-05  3.694115E-04 -2.840089E-04
        48  5.432799E-05  3.694198E-04 -2.840089E-04
        49 -4.086002E-05  9.131545E-04 -4.323225E-04
        50  3.418300E-05  1.250487E-03 -3.771812E-04
        51  1.491969E-04  1.611099E-03 -2.340010E-04
        74  1.519951E-04  1.610921E-03  2.342638E-04
        75  3.537777E-05  1.249922E-03  3.772574E-04
        76 -4.157021E-05  9.137769E-04  4.323450E-04
        77  5.400510E-05  3.694728E-04  2.840779E-04
        89 -1.517437E-04  1.611134E-03  2.341706E-04
        90 -3.530664E-05  1.249910E-03  3.771844E-04
        91  4.156805E-05  9.137864E-04  4.323644E-04
        92 -5.400668E-05  3.694498E-04  2.840710E-04
        98  0.000000E+00  0.000000E+00  0.000000E+00
        99  0.000000E+00  0.000000E+00  0.000000E+00
       100  0.000000E+00  0.000000E+00  0.000000E+00
       101  0.000000E+00  0.000000E+00  0.000000E+00
       102  0.000000E+00  0.000000E+00  0.000000E+00
       124  4.134273E-06  1.478709E-03 -2.205089E-04
       125  1.169120E-07  1.769814E-03 -2.313166E-04
       126 -3.948255E-06  1.478728E-03 -2.205253E-04
       127  4.202832E-08  1.301597E-03 -4.171788E-04
       128 -3.184054E-06  9.593691E-04 -4.635123E-04
       129  2.626533E-08  8.893208E-04 -4.721567E-04
       130  3.223527E-06  9.593821E-04 -4.635136E-04
       131  9.156435E-10  3.753945E-04 -2.760185E-04
       153  1.239301E-04  1.916737E-03 -1.038923E-04
       154  1.189481E-06  1.692349E-03  1.830955E-07
       155 -1.251429E-04  1.917223E-03  1.041340E-04
       156  3.757548E-07  1.406507E-03  8.242294E-08
       157 -2.470726E-05  7.927056E-04 -1.860237E-04
       158 -3.050310E-07  8.098228E-04  4.779011E-08
       159  2.489750E-05  7.928956E-04  1.861740E-04
       160 -1.456925E-07  3.082907E-04 -4.030572E-08
       182  4.641308E-06  1.478493E-03  2.206826E-04
       183  1.307317E-07  1.771341E-03  2.314736E-04
       184 -4.421104E-06  1.478544E-03  2.207174E-04
       185  3.046103E-08  1.302881E-03  4.175650E-04
       186 -3.326479E-06  9.600029E-04  4.636683E-04
       187  1.209536E-08  8.895668E-04  4.724626E-04
       188  3.344644E-06  9.600206E-04  4.636599E-04
       189 -4.596458E-09  3.753822E-04  2.761052E-04
       211  1.252942E-04  1.917331E-03  1.040796E-04
       212 -1.080487E-06  1.692270E-03  3.547080E-08
       213 -1.238352E-04  1.916577E-03 -1.038711E-04
       214 -3.350385E-07  1.406517E-03  1.394695E-08
       215 -2.486781E-05  7.928716E-04  1.861496E-04
       216  3.531525E-07  8.097881E-04  1.912022E-08
       217  2.475022E-05  7.927006E-04 -1.860636E-04
       218  1.520468E-07  3.082879E-04 -4.218790E-08
       250  4.005487E-08  1.910298E-03 -1.030743E-04
       251 -5.324109E-07  1.209718E-03  3.697006E-08
       252 -5.032892E-08  1.542485E-03  7.692365E-08
       253  5.561464E-07  1.209767E-03  1.382183E-07
       254  4.709601E-08  1.910706E-03  1.034524E-04
       255  2.780650E-08  1.374783E-03  1.444850E-07
       256  1.168010E-08  7.834365E-04 -2.072572E-04
       257  1.957182E-07  9.138845E-04  6.246540E-08
       258  8.513481E-10  8.126602E-04  7.533791E-08
       259 -1.772438E-07  9.138996E-04  7.106780E-08
       260  4.706046E-09  7.836292E-04  2.073527E-04
       261  9.341345E-09  3.485148E-04  6.601098E-09

 forces (fx,fy,fz) for set NALL and time  0.1000000E-01

         5 -1.663585E+00  3.775587E-01  9.239868E-01
         6  1.663457E+00  3.779252E-01  9.234911E-01
         7 -1.681837E+00  3.712607E-01 -9.246471E-01
         8  1.681854E+00  3.713462E-01 -9.242509E-01
        21  1.034479E+00 -1.642531E+00  8.956761E+00
        22 -3.153550E-04  7.271462E-01  1.412495E+00
        23 -1.034089E+00 -1.641861E+00  8.956669E+00
        24  1.176510E+00 -5.889090E+00  4.718975E+00
        25 -1.289598E-02  2.450121E+00 -1.677832E-03
        26 -1.156806E+00 -5.892432E+00 -4.717592E+00
        27  1.049016E+00 -1.630348E+00 -8.957632E+00
        28 -2.216378E-04  7.145518E-01 -1.410794E+00
        29 -1.048601E+00 -1.630023E+00 -8.957818E+00
        30  1.156564E+00 -5.893399E+00 -4.717806E+00
        31  1.288358E-02  2.450360E+00 -1.071362E-03
        32 -1.176701E+00 -5.888159E+00  4.718539E+00
        44 -6.107821E+00 -1.506773E+01 -7.506063E-01
        45  6.107697E-06  5.208353E-01 -1.306833E-01
        46 -4.673516E-06 -1.320401E+00  3.969495E-01
        47  1.646871E-06  9.996432E-01 -4.628157E-01
        48 -1.799015E-06  9.996421E-01 -4.628162E-01
        49  4.184797E-06 -1.320402E+00  3.969497E-01
        50 -4.550740E-06  5.208373E-01 -1.306830E-01
        51  6.108762E+00 -1.506638E+01 -7.531773E-01
        74  6.230040E+00 -1.503970E+01  7.516938E-01
        75 -5.475851E-07  5.209086E-01  1.306595E-01
        76  1.404579E-06 -1.320454E+00 -3.969427E-01
        77 -3.448511E-06  9.996540E-01  4.628125E-01
        89 -6.229326E+00 -1.504027E+01  7.489842E-01
        90  2.965164E-06  5.209054E-01  1.306595E-01
        91 -1.817077E-06 -1.320453E+00 -3.969428E-01
        92  2.948276E-06  9.996559E-01  4.628125E-01
        98  1.969593E-04 -1.288758E+01  8.223506E+00
        99 -6.296686E-03  3.918872E+00 -7.427103E-04
       100  7.213786E-04  5.315450E+00  1.385878E-03
       101  5.560803E-03  3.918311E+00 -1.177363E-03
       102  1.167383E-05 -1.289148E+01 -8.224362E+00
       124 -6.439164E+00 -1.702238E+01  4.645647E-01
       125  1.887550E-03 -3.097796E+01 -1.395383E+00
       126  6.437702E+00 -1.702410E+01  4.621424E-01
       127 -3.767628E-07  1.041671E+00 -2.613589E-01
       128 -3.909442E-06  2.240633E+00 -8.016472E-01
       129  1.694321E-07 -2.640803E+00  7.938964E-01
       130  4.303012E-06  2.240632E+00 -8.016464E-01
       131 -4.536135E-07  1.999285E+00 -9.256298E-01
       153  4.521735E+00  5.170903E+01  1.168217E+00
       154  9.418312E-02 -3.306477E+01  8.717723E-04
       155 -4.672065E+00  5.174287E+01 -1.169646E+00
       156  1.002981E-05  1.041737E+00  2.122531E-05
       157  6.521868E-06  2.240640E+00 -6.012271E-01
       158 -4.970943E-06 -2.640853E+00 -9.929002E-06
       159  1.167758E-07  2.240694E+00  6.012297E-01
       160  1.038726E-06  1.999300E+00  2.881451E-06
       182 -6.534480E+00 -1.710249E+01 -4.651481E-01
       183  2.007874E-03 -3.092371E+01  1.388973E+00
       184  6.533026E+00 -1.710368E+01 -4.618222E-01
       185 -1.106151E-06  1.069527E+00  2.613140E-01
       186 -2.162719E-06  2.268408E+00  8.016245E-01
       187  4.111064E-07 -2.613210E+00 -7.938863E-01
       188  2.468998E-06  2.268406E+00  8.016241E-01
       189 -3.433682E-07  2.027017E+00  9.256210E-01
       211  4.672993E+00  5.174864E+01 -1.165481E+00
       212 -9.627735E-02 -3.306535E+01 -4.649839E-03
       213 -4.521740E+00  5.170266E+01  1.173329E+00
       214 -7.952407E-06  1.041737E+00  1.967582E-05
       215  1.304536E-06  2.240692E+00  6.012298E-01
       216  3.977665E-06 -2.640853E+00 -9.212269E-06
       217 -5.347756E-06  2.240641E+00 -6.012273E-01
       218 -5.155070E-07  1.999300E+00  3.973590E-06
       250 -6.731418E-04  1.048093E+02  2.314711E+00
       251  4.199476E-02 -4.731737E+01 -2.157834E-03
       252 -4.892998E-03 -6.971657E+01 -6.653122E-03
       253 -3.807317E-02 -4.731561E+01  1.823993E-03
       254  2.736876E-04  1.048389E+02 -2.296822E+00
       255 -2.819403E-06  2.083480E+00  5.200266E-05
       256 -7.236812E-07  4.481281E+00 -1.202446E+00
       257 -6.205367E-06  4.481333E+00  2.284547E-05
       258  5.592041E-07 -5.281711E+00 -2.048560E-05
       259  5.931185E-06  4.481333E+00  2.308135E-05
       260 -1.450516E-06  4.481397E+00  1.202456E+00
       261  4.267539E-07  3.998604E+00  8.017819E-06

 displacements (vx,vy,vz) for set NALL and time  0.1500000E-01

         5  0.000000E+00  0.000000E+00  0.000000E+00
         6  0.000000E+00  0.000000E+00  0.000000E+00
         7  0.000000E+00  0.000000E+00  0.000000E+00
         8  0.000000E+00  0.000000E+00  0.000000E+00
        21  0.000000E+00  0.000000E+00  0.000000E+00
        22  0.000000E+00  0.000000E+00  0.000000E+00
        23  0.000000E+00  0.000000E+00  0.000000E+00
        24  0.000000E+00  0.000000E+00  0.000000E+00
        25  0.000000E+00  0.000000E+00  0.000000E+00
        26  0.000000E+00  0.000000E+00  0.000000E+00
        27  0.000000E+00  0.000000E+00  0.000000E+00
        28  0.000000E+00  0.000000E+00  0.000000E+00
        29  0.000000E+00  0.000000E+00  0.000000E+00
        30  0.000000E+00  0.000000E+00  0.000000E+00
        31  0.000000E+00  0.000000E+00  0.000000E+00
        32  0.000000E+00  0.000000E+00  0.000000E+00
        44  1.198544E-04 -1.276182E-03  1.855388E-04
        45  2.714896E-05 -9.909535E-04  2.989194E-04
        46 -3.255001E-05 -7.235240E-04  3.422452E-04
        47  4.297904E-05 -2.928944E-04  2.251525E-04
        48 -4.297844E-05 -2.928777E-04  2.251204E-04
        49  3.252254E-05 -7.234933E-04  3.422154E-04
        50 -2.700143E-05 -9.909995E-04  2.989141E-04
        51 -1.196530E-04 -1.276354E-03  1.854871E-04
        74 -1.220339E-04 -1.274370E-03 -1.854563E-04
        75 -2.826390E-05 -9.898921E-04 -2.988470E-04
        76  3.318591E-05 -7.240703E-04 -3.422251E-04
        77 -4.261163E-05 -2.931934E-04 -2.251398E-04
        89  1.222848E-04 -1.274131E-03 -1.854970E-04
        90  2.842219E-05 -9.898425E-04 -2.988526E-04
        91 -3.319794E-05 -7.240786E-04 -3.422543E-04
        92  4.261702E-05 -2.932068E-04 -2.251734E-04
        98  0.000000E+00  0.000000E+00  0.000000E+00
        99  0.000000E+00  0.000000E+00  0.000000E+00
       100  0.000000E+00  0.000000E+00  0.000000E+00
       101  0.000000E+00  0.000000E+00  0.000000E+00
       102  0.000000E+00  0.000000E+00  0.000000E+00
       124 -3.679674E-06 -1.171832E-03  1.747802E-04
       125  1.703402E-07 -1.402375E-03  1.833577E-04
       126  3.907874E-06 -1.171843E-03  1.748399E-04
       127  1.793979E-08 -1.031646E-03  3.303701E-04
       128  2.604498E-06 -7.600096E-04  3.672734E-04
       129  3.921827E-08 -7.045122E-04  3.742788E-04
       130 -2.568479E-06 -7.600048E-04  3.672785E-04
       131 -6.529750E-09 -2.974544E-04  2.187038E-04
       153 -9.974553E-05 -1.520513E-03  8.240731E-05
       154 -4.781413E-07 -1.346078E-03  2.160452E-08
       155  1.007276E-04 -1.519560E-03 -8.241266E-05
       156 -1.486686E-08 -1.114966E-03  1.452128E-07
       157  2.007067E-05 -6.282774E-04  1.473709E-04
       158  1.206044E-07 -6.417270E-04  5.794176E-08
       159 -2.021912E-05 -6.285489E-04 -1.473487E-04
       160  1.938150E-08 -2.439306E-04  5.471491E-09
       182 -4.857069E-06 -1.172402E-03 -1.747637E-04
       183  1.806226E-07 -1.401978E-03 -1.833543E-04
       184  5.118243E-06 -1.172374E-03 -1.748075E-04
       185  3.052236E-08 -1.031887E-03 -3.306656E-04
       186  2.915227E-06 -7.599173E-04 -3.672796E-04
       187  4.083631E-08 -7.045405E-04 -3.743960E-04
       188 -2.869427E-06 -7.599023E-04 -3.672854E-04
       189 -3.699648E-09 -2.974052E-04 -2.187121E-04
       211 -1.005950E-04 -1.519378E-03 -8.248247E-05
       212  6.190386E-07 -1.346081E-03  4.475482E-08
       213  9.984611E-05 -1.520666E-03  8.234931E-05
       214  4.339662E-08 -1.114951E-03  8.876665E-08
       215  2.026132E-05 -6.285678E-04 -1.473732E-04
       216 -5.059747E-08 -6.417286E-04  1.503405E-08
       217 -2.003489E-05 -6.282487E-04  1.473438E-04
       218 -1.195144E-08 -2.439272E-04  2.601464E-09
       250  5.993736E-08 -1.513106E-03  8.181926E-05
       251 -1.243139E-07 -9.578392E-04  2.051168E-08
       252 -8.149387E-08 -1.222593E-03 -1.907089E-08
       253  1.374811E-07 -9.578359E-04 -3.364282E-08
       254  6.327268E-08 -1.513693E-03 -8.179088E-05
       255  4.368121E-08 -1.090294E-03 -1.216201E-08
       256  1.222307E-08 -6.204570E-04  1.643312E-04
       257  5.138505E-08 -7.245728E-04 -2.621763E-08
       258 -8.206597E-09 -6.430575E-04 -4.590318E-09
       259 -3.340609E-08 -7.245723E-04  5.886715E-09
       260  1.350135E-08 -6.203025E-04 -1.643390E-04
       261  1.373819E-08 -2.760027E-04 -9.029170E-10

 forces (fx,fy,fz) for set NALL and time  0.1500000E-01

         5  1.321435E+00 -2.835721E-01 -7.357543E-01
         6 -1.321505E+00 -2.833651E-01 -7.355029E-01
         7  1.328859E+00 -2.859024E-01  7.356110E-01
         8 -1.328913E+00 -2.857583E-01  7.353289E-01
        21 -8.117929E-01  1.285026E+00 -7.094590E+00
        22 -7.776697E-04 -5.388318E-01 -1.127875E+00
        23  8.125905E-01  1.285865E+00 -7.094973E+00
        24 -9.200233E-01  4.643700E+00 -3.735061E+00
        25  8.499957E-03 -1.895395E+00  1.192554E-03
        26  9.112308E-01  4.647547E+00  3.733819E+00
        27 -8.185590E-01  1.287774E+00  7.095910E+00
        28 -7.255177E-04 -5.500649E-01  1.124522E+00
        29  8.192991E-01  1.288422E+00  7.096168E+00
        30 -9.113760E-01  4.646519E+00  3.734512E+00
        31 -8.878735E-03 -1.895304E+00  1.257550E-03
        32  9.199740E-01  4.644665E+00 -3.734500E+00
        44  4.885843E+00  1.182686E+01  5.957331E-01
        45 -4.852810E-06 -4.142314E-01  1.039353E-01
        46  3.723122E-06  1.050144E+00 -3.157028E-01
        47 -1.326525E-06 -7.950387E-01  3.680877E-01
        48  1.447530E-06 -7.950378E-01  3.680881E-01
        49 -3.334437E-06  1.050145E+00 -3.157029E-01
        50  3.614532E-06 -4.142330E-01  1.039350E-01
        51 -4.884807E+00  1.182835E+01  5.964201E-01
        74 -4.939113E+00  1.185032E+01 -5.947262E-01
        75  4.243280E-07 -4.142896E-01 -1.039163E-01
        76 -1.119388E-06  1.050186E+00  3.156973E-01
        77  2.760133E-06 -7.950473E-01 -3.680852E-01
        89  4.940169E+00  1.184907E+01 -5.940215E-01
        90 -2.347081E-06 -4.142871E-01 -1.039163E-01
        91  1.447455E-06  1.050186E+00  3.156974E-01
        92 -2.362286E-06 -7.950488E-01 -3.680852E-01
        98  9.477177E-05  1.016787E+01 -6.515807E+00
        99  7.509212E-03 -3.126188E+00 -8.415628E-04
       100  1.176950E-03 -4.151526E+00 -3.418765E-04
       101 -8.272755E-03 -3.126270E+00 -1.082141E-03
       102  4.380042E-05  1.018376E+01  6.518374E+00
       124  5.062235E+00  1.359070E+01 -3.681530E-01
       125  2.755775E-03  2.432059E+01  1.104542E+00
       126 -5.064552E+00  1.358806E+01 -3.669437E-01
       127  2.996535E-07 -8.284632E-01  2.078644E-01
       128  3.118255E-06 -1.782026E+00  6.375679E-01
       129 -1.347574E-07  2.100289E+00 -6.314035E-01
       130 -3.431265E-06 -1.782025E+00  6.375673E-01
       131  3.607701E-07 -1.590077E+00  7.361742E-01
       153 -3.687842E+00 -4.084261E+01 -9.272777E-01
       154 -7.729843E-02  2.592774E+01  1.407353E-03
       155  3.761324E+00 -4.087168E+01  9.255593E-01
       156 -7.968441E-06 -8.285152E-01 -1.686831E-05
       157 -5.195810E-06 -1.782031E+00  4.781694E-01
       158  3.952947E-06  2.100329E+00  7.888873E-06
       159 -8.884235E-08 -1.782073E+00 -4.781714E-01
       160 -8.316100E-07 -1.590088E+00 -2.291792E-06
       182  5.105671E+00  1.355998E+01  3.674238E-01
       183  2.691023E-03  2.443150E+01 -1.103067E+00
       184 -5.108012E+00  1.355778E+01  3.663625E-01
       185  8.797497E-07 -8.300441E-01 -2.078286E-01
       186  1.725501E-06 -1.783542E+00 -6.375498E-01
       187 -3.269638E-07  2.098917E+00  6.313955E-01
       188 -1.969090E-06 -1.783541E+00 -6.375496E-01
       189  2.730882E-07 -1.591559E+00 -7.361671E-01
       211 -3.760853E+00 -4.086391E+01  9.238035E-01
       212  7.555094E-02  2.592756E+01  2.649850E-03
       213  3.687909E+00 -4.085050E+01 -9.290276E-01
       214  6.316244E-06 -8.285157E-01 -1.563597E-05
       215 -1.041558E-06 -1.782072E+00 -4.781715E-01
       216 -3.162976E-06  2.100329E+00  7.318842E-06
       217  4.262018E-06 -1.782032E+00  4.781695E-01
       218  4.154827E-07 -1.590088E+00 -3.160397E-06
       250  7.774362E-07 -8.273796E+01 -1.828532E+00
       251 -7.093301E-02  3.766451E+01 -7.376426E-05
       252 -5.408688E-03  5.486961E+01  1.538978E-03
       253  7.469835E-02  3.766485E+01 -2.528255E-03
       254  8.299844E-05 -8.288343E+01  1.828546E+00
       255  2.242341E-06 -1.657036E+00 -4.133727E-05
       256  5.755652E-07 -3.564062E+00  9.563318E-01
       257  4.939316E-06 -3.564104E+00 -1.815819E-05
       258 -4.447527E-07  4.200662E+00  1.627674E-05
       259 -4.721247E-06 -3.564104E+00 -1.834578E-05
       260  1.153629E-06 -3.564154E+00 -9.563400E-01
       261 -3.394061E-07 -3.180180E+00 -6.376010E-06

 displacements (vx,vy,vz) for set NALL and time  0.2000000E-01

         5  0.000000E+00  0.000000E+00  0.000000E+00
         6  0.000000E+00  0.000000E+00  0.000000E+00
         7  0.000000E+00  0.000000E+00  0.000000E+00
         8  0.000000E+00  0.000000E+00  0.000000E+00
        21  0.000000E+00  0.000000E+00  0.000000E+00
        22  0.000000E+00  0.000000E+00  0.000000E+00
        23  0.000000E+00  0.000000E+00  0.000000E+00
        24  0.000000E+00  0.000000E+00  0.000000E+00
        25  0.000000E+00  0.000000E+00  0.000000E+00
        26  0.000000E+00  0.000000E+00  0.000000E+00
        27  0.000000E+00  0.000000E+00  0.000000E+00
        28  0.000000E+00  0.000000E+00  0.000000E+00
        29  0.000000E+00  0.000000E+00  0.000000E+00
        30  0.000000E+00  0.000000E+00  0.000000E+00
        31  0.000000E+00  0.000000E+00  0.000000E+00
        32  0.000000E+00  0.000000E+00  0.000000E+00
        44 -9.665572E-05  9.856124E-04 -1.438624E-04
        45 -2.325051E-05  7.663884E-04 -2.318708E-04
        46  2.623186E-05  5.626142E-04 -2.655556E-04
        47 -3.271809E-05  2.280069E-04 -1.747018E-04
        48  3.271217E-05  2.279921E-04 -1.746691E-04
        49 -2.621362E-05  5.626021E-04 -2.655216E-04
        50  2.312721E-05  7.663990E-04 -2.318672E-04
        51  9.656999E-05  9.857291E-04 -1.438756E-04
        74  9.146347E-05  9.912206E-04  1.438554E-04
        75  2.023690E-05  7.693807E-04  2.318419E-04
        76 -2.515592E-05  5.614929E-04  2.655185E-04
        77  3.350009E-05  2.271654E-04  1.746765E-04
        89 -9.158144E-05  9.911104E-04  1.438657E-04
        90 -2.037635E-05  7.693345E-04  2.318491E-04
        91  2.515534E-05  5.615007E-04  2.655442E-04
        92 -3.351207E-05  2.271728E-04  1.747028E-04
        98  0.000000E+00  0.000000E+00  0.000000E+00
        99  0.000000E+00  0.000000E+00  0.000000E+00
       100  0.000000E+00  0.000000E+00  0.000000E+00
       101  0.000000E+00  0.000000E+00  0.000000E+00
       102  0.000000E+00  0.000000E+00  0.000000E+00
       124  5.897505E-06  9.105771E-04 -1.354882E-04
       125 -1.260199E-07  1.086202E-03 -1.422943E-04
       126 -6.044516E-06  9.105783E-04 -1.355466E-04
       127 -1.149366E-08  8.004049E-04 -2.566831E-04
       128 -2.755384E-06  5.894570E-04 -2.849024E-04
       129 -3.538193E-08  5.469935E-04 -2.904753E-04
       130  2.723376E-06  5.894512E-04 -2.849039E-04
       131  3.192771E-09  2.308588E-04 -1.697079E-04
       153  7.838449E-05  1.176084E-03 -6.390913E-05
       154 -8.390753E-07  1.043367E-03  1.466705E-08
       155 -7.677984E-05  1.181928E-03  6.386831E-05
       156  1.113961E-07  8.647854E-04  2.841082E-07
       157 -1.570735E-05  4.883869E-04 -1.143425E-04
       158  1.496231E-07  4.981612E-04  1.013485E-07
       159  1.532968E-05  4.871552E-04  1.142918E-04
       160 -5.425796E-08  1.894462E-04 -3.188037E-09
       182  3.159889E-07  9.086925E-04  1.355298E-04
       183 -1.307629E-07  1.088327E-03  1.422748E-04
       184 -4.839795E-07  9.086973E-04  1.355782E-04
       185 -2.528984E-08  8.003989E-04  2.560791E-04
       186 -1.560097E-06  5.898656E-04  2.849302E-04
       187 -4.108104E-08  5.464609E-04  2.902561E-04
       188  1.513061E-06  5.898575E-04  2.849303E-04
       189 -6.342687E-10  2.308806E-04  1.696989E-04
       211  7.672263E-05  1.181823E-03  6.387585E-05
       212  7.560006E-07  1.043340E-03 -8.280687E-09
       213 -7.843024E-05  1.176165E-03 -6.387580E-05
       214 -1.609157E-07  8.647823E-04  3.218799E-07
       215 -1.536397E-05  4.871608E-04  1.143204E-04
       216 -2.005207E-07  4.981483E-04  1.370268E-07
       217  1.568307E-05  4.883665E-04 -1.143191E-04
       218  4.285499E-08  1.894434E-04  6.874342E-09
       250 -6.155824E-08  1.175019E-03 -6.345392E-05
       251 -1.958556E-06  7.432561E-04 -3.535801E-08