    1C
    1UUSER                                                              
    1UDATE              15.july.2018                                    
    1UTIME              21:32:16                                        
    1UHOST                                                              
    1UPGM               CalculiX                                        
    1UVERSION           Version 2.13                             
    1UCOMPILETIME       jue jun 14 00:40:39 CEST 2018                    
    1UDIR                                                               
    1UDBN                                                               
    1UMAT    1EL                                                        
    2C                            81                                     1
 -1         5 0.00000E+00 0.00000E+00 8.00000E+00
 -1         6 1.00000E+00 0.00000E+00 8.00000E+00
 -1         7 1.00000E+00 1.00000E+00 8.00000E+00
 -1         8 0.00000E+00 1.00000E+00 8.00000E+00
 -1        21 2.50000E-01 0.00000E+00 8.00000E+00
 -1        22 5.00000E-01 0.00000E+00 8.00000E+00
 -1        23 7.50000E-01 0.00000E+00 8.00000E+00
 -1        24 1.00000E+00 2.50000E-01 8.00000E+00
 -1        25 1.00000E+00 5.00000E-01 8.00000E+00
 -1        26 1.00000E+00 7.50000E-01 8.00000E+00
 -1        27 7.50000E-01 1.00000E+00 8.00000E+00
 -1        28 5.00000E-01 1.00000E+00 8.00000E+00
 -1        29 2.50000E-01 1.00000E+00 8.00000E+00
 -1        30 0.00000E+00 7.50000E-01 8.00000E+00
 -1        31 0.00000E+00 5.00000E-01 8.00000E+00
 -1        32 0.00000E+00 2.50000E-01 8.00000E+00
 -1        44 1.00000E+00 0.00000E+00 6.00000E+00
 -1        45 1.00000E+00 0.00000E+00 6.50000E+00
 -1        46 1.00000E+00 0.00000E+00 7.00000E+00
 -1        47 1.00000E+00 0.00000E+00 7.50000E+00
 -1        48 0.00000E+00 0.00000E+00 7.50000E+00
 -1        49 0.00000E+00 0.00000E+00 7.00000E+00
 -1        50 0.00000E+00 0.00000E+00 6.50000E+00
 -1        51 0.00000E+00 0.00000E+00 6.00000E+00
 -1        74 1.00000E+00 1.00000E+00 6.00000E+00
 -1        75 1.00000E+00 1.00000E+00 6.50000E+00
 -1        76 1.00000E+00 1.00000E+00 7.00000E+00
 -1        77 1.00000E+00 1.00000E+00 7.50000E+00
 -1        89 0.00000E+00 1.00000E+00 6.00000E+00
 -1        90 0.00000E+00 1.00000E+00 6.50000E+00
 -1        91 0.00000E+00 1.00000E+00 7.00000E+00
 -1        92 0.00000E+00 1.00000E+00 7.50000E+00
 -1        98 5.00000E-01 2.50000E-01 8.00000E+00
 -1        99 2.50000E-01 5.00000E-01 8.00000E+00
 -1       100 5.00000E-01 5.00000E-01 8.00000E+00
 -1       101 7.50000E-01 5.00000E-01 8.00000E+00
 -1       102 5.00000E-01 7.50000E-01 8.00000E+00
 -1       124 2.50000E-01 0.00000E+00 6.00000E+00
 -1       125 5.00000E-01 0.00000E+00 6.00000E+00
 -1       126 7.50000E-01 0.00000E+00 6.00000E+00
 -1       127 5.00000E-01 0.00000E+00 6.50000E+00
 -1       128 2.50000E-01 0.00000E+00 7.00000E+00
 -1       129 5.00000E-01 0.00000E+00 7.00000E+00
 -1       130 7.50000E-01 0.00000E+00 7.00000E+00
 -1       131 5.00000E-01 0.00000E+00 7.50000E+00
 -1       153 1.00000E+00 2.50000E-01 6.00000E+00
 -1       154 1.00000E+00 5.00000E-01 6.00000E+00
 -1       155 1.00000E+00 7.50000E-01 6.00000E+00
 -1       156 1.00000E+00 5.00000E-01 6.50000E+00
 -1       157 1.00000E+00 2.50000E-01 7.00000E+00
 -1       158 1.00000E+00 5.00000E-01 7.00000E+00
 -1       159 1.00000E+00 7.50000E-01 7.00000E+00
 -1       160 1.00000E+00 5.00000E-01 7.50000E+00
 -1       182 7.50000E-01 1.00000E+00 6.00000E+00
 -1       183 5.00000E-01 1.00000E+00 6.00000E+00
 -1       184 2.50000E-01 1.00000E+00 6.00000E+00
 -1       185 5.00000E-01 1.00000E+00 6.50000E+00
 -1       186 7.50000E-01 1.00000E+00 7.00000E+00
 -1       187 5.00000E-01 1.00000E+00 7.00000E+00
 -1       188 2.50000E-01 1.00000E+00 7.00000E+00
 -1       189 5.00000E-01 1.00000E+00 7.50000E+00
 -1       211 0.00000E+00 7.50000E-01 6.00000E+00
 -1       212 0.00000E+00 5.00000E-01 6.00000E+00
 -1       213 0.00000E+00 2.50000E-01 6.00000E+00
 -1       214 0.00000E+00 5.00000E-01 6.50000E+00
 -1       215 0.00000E+00 7.50000E-01 7.00000E+00
 -1       216 0.00000E+00 5.00000E-01 7.00000E+00
 -1       217 0.00000E+00 2.50000E-01 7.00000E+00
 -1       218 0.00000E+00 5.00000E-01 7.50000E+00
 -1       250 5.00000E-01 2.50000E-01 6.00000E+00
 -1       251 2.50000E-01 5.00000E-01 6.00000E+00
 -1       252 5.00000E-01 5.00000E-01 6.00000E+00
 -1       253 7.50000E-01 5.00000E-01 6.00000E+00
 -1       254 5.00000E-01 7.50000E-01 6.00000E+00
 -1       255 5.00000E-01 5.00000E-01 6.50000E+00
 -1       256 5.00000E-01 2.50000E-01 7.00000E+00
 -1       257 2.50000E-01 5.00000E-01 7.00000E+00
 -1       258 5.00000E-01 5.00000E-01 7.00000E+00
 -1       259 7.50000E-01 5.00000E-01 7.00000E+00
 -1       260 5.00000E-01 7.50000E-01 7.00000E+00
 -1       261 5.00000E-01 5.00000E-01 7.50000E+00
 -3
    3C                             8                                     1
 -1        25    4    0    1
 -2        51       125       252       212        49       129       258       216       124       250
 -2       251       213        50       127       255       214       128       256       257       217
 -1        26    4    0    1
 -2       125        44       154       252       129        46       158       258       126       153
 -2       253       250       127        45       156       255       130       157       259       256
 -1        27    4    0    1
 -2       212       252       183        89       216       258       187        91       251       254
 -2       184       211       214       255       185        90       257       260       188       215
 -1        28    4    0    1
 -2       252       154        74       183       258       158        76       187       253       155
 -2       182       254       255       156        75       185       259       159       186       260
 -1        29    4    0    1
 -2        49       129       258       216         5        22       100        31       128       256
 -2       257       217        48       131       261       218        21        98        99        32
 -1        30    4    0    1
 -2       129        46       158       258        22         6        25       100       130       157
 -2       259       256       131        47       160       261        23        24       101        98
 -1        31    4    0    1
 -2       216       258       187        91        31       100        28         8       257       260
 -2       188       215       218       261       189        92        99       102        29        30
 -1        32    4    0    1
 -2       258       158        76       187       100        25         7        28       259       159
 -2       186       260       261       160        77       189       101        26        27       102
 -3
    1PSTEP                         1           1           1          
  100CL  101 5.00000E-03          81                     1    1           1
 -4  DISP        4    1
 -5  D1          1    2    1    0
 -5  D2          1    2    2    0
 -5  D3          1    2    3    0
 -5  ALL         1    2    0    0    1ALL
 -1         5 0.00000E+00 0.00000E+00 0.00000E+00
 -1         6 0.00000E+00 0.00000E+00 0.00000E+00
 -1         7 0.00000E+00 0.00000E+00 0.00000E+00
 -1         8 0.00000E+00 0.00000E+00 0.00000E+00
 -1        21 0.00000E+00 0.00000E+00 0.00000E+00
 -1        22 0.00000E+00 0.00000E+00 0.00000E+00
 -1        23 0.00000E+00 0.00000E+00 0.00000E+00
 -1        24 0.00000E+00 0.00000E+00 0.00000E+00
 -1        25 0.00000E+00 0.00000E+00 0.00000E+00
 -1        26 0.00000E+00 0.00000E+00 0.00000E+00
 -1        27 0.00000E+00 0.00000E+00 0.00000E+00
 -1        28 0.00000E+00 0.00000E+00 0.00000E+00
 -1        29 0.00000E+00 0.00000E+00 0.00000E+00
 -1        30 0.00000E+00 0.00000E+00 0.00000E+00
 -1        31 0.00000E+00 0.00000E+00 0.00000E+00
 -1        32 0.00000E+00 0.00000E+00 0.00000E+00
 -1        44-6.07224E-05-3.46499E-03 4.48355E-04
 -1        45 5.66986E-05-2.56176E-03 7.85250E-04
 -1        46-4.76579E-05-1.79548E-03 9.49080E-04
 -1        47 1.31035E-04-6.74862E-04 5.43011E-04
 -1        48-1.31046E-04-6.74865E-04 5.43025E-04
 -1        49 4.76369E-05-1.79547E-03 9.49102E-04
 -1        50-5.67605E-05-2.56177E-03 7.85267E-04
 -1        51 6.06920E-05-3.46497E-03 4.48336E-04
 -1        74 3.20444E-04-4.41306E-03-4.94250E-04
 -1        75 1.91763E-04-2.97255E-03-7.84464E-04
 -1        76-1.10752E-04-1.59702E-03-9.49942E-04
 -1        77-2.08083E-04-5.26344E-04-5.58063E-04
 -1        89-3.20475E-04-4.41308E-03-4.94266E-04
 -1        90-1.91826E-04-2.97255E-03-7.84446E-04
 -1        91 1.10731E-04-1.59702E-03-9.49918E-04
 -1        92 2.08072E-04-5.26341E-04-5.58049E-04
 -1        98 0.00000E+00 0.00000E+00 0.00000E+00
 -1        99 0.00000E+00 0.00000E+00 0.00000E+00
 -1       100 0.00000E+00 0.00000E+00 0.00000E+00
 -1       101 0.00000E+00 0.00000E+00 0.00000E+00
 -1       102 0.00000E+00 0.00000E+00 0.00000E+00
 -1       124 1.49242E-04-2.96545E-03 4.29287E-04
 -1       125-4.17203E-08-3.58844E-03 4.48552E-04
 -1       126-1.49302E-04-2.96546E-03 4.29274E-04
 -1       127-1.99576E-08-2.56206E-03 9.03394E-04
 -1       128-9.07217E-06-1.95266E-03 9.48008E-04
 -1       129-1.87013E-08-1.81440E-03 9.41319E-04
 -1       130 9.04346E-06-1.95267E-03 9.48002E-04
 -1       131-3.91176E-09-7.36406E-04 5.56344E-04
 -1       153 7.04696E-05-3.63396E-03 1.90927E-04
 -1       154-1.20123E-04-2.50052E-03-2.07920E-05
 -1       155-6.61954E-05-3.88814E-03-2.37841E-04
 -1       156-1.20281E-04-2.78914E-03-6.46962E-05
 -1       157-2.07394E-05-1.50875E-03 3.92334E-04
 -1       158 8.84048E-05-1.56647E-03-2.94203E-05
 -1       159 4.69903E-05-1.47504E-03-4.11034E-04
 -1       160 3.98000E-05-6.56558E-04 4.87973E-06
 -1       182 1.15508E-04-2.56163E-03-4.70882E-04
 -1       183-4.30562E-08-4.35508E-03-4.76172E-04
 -1       184-1.15569E-04-2.56163E-03-4.70866E-04
 -1       185-1.94477E-08-2.83261E-03-8.73792E-04
 -1       186-4.42933E-05-2.16227E-03-9.82489E-04
 -1       187-1.89520E-08-1.83158E-03-9.63383E-04
 -1       188 4.42645E-05-2.16227E-03-9.82483E-04
 -1       189-3.87730E-09-7.19932E-04-5.64429E-04
 -1       211 6.61866E-05-3.88814E-03-2.37850E-04
 -1       212 1.20136E-04-2.50052E-03-2.08154E-05
 -1       213-7.04768E-05-3.63395E-03 1.90915E-04
 -1       214 1.20205E-04-2.78914E-03-6.46846E-05
 -1       215-4.70062E-05-1.47504E-03-4.11013E-04
 -1       216-8.84151E-05-1.56647E-03-2.93960E-05
 -1       217 2.07231E-05-1.50874E-03 3.92355E-04
 -1       218-3.98139E-05-6.56558E-04 4.89955E-06
 -1       250-5.07114E-08-4.08209E-03 1.74440E-04
 -1       251 3.07587E-05-2.57155E-03-1.05235E-05
 -1       252-5.81649E-08-3.12394E-03-1.65950E-05
 -1       253-3.08142E-05-2.57155E-03-1.05664E-05
 -1       254-5.16417E-08-4.41310E-03-2.54061E-04
 -1       255-1.39876E-08-2.59856E-03-3.20836E-05
 -1       256-2.25138E-08-1.60730E-03 3.95466E-04
 -1       257-4.12482E-05-1.74904E-03-1.20209E-05
 -1       258-2.60893E-08-1.79049E-03-1.44870E-05
 -1       259 4.12175E-05-1.74904E-03-1.20204E-05
 -1       260-2.25707E-08-1.62250E-03-4.18176E-04
 -1       261-3.04859E-09-7.16994E-04-1.94303E-06
 -3
    1PSTEP                         2           2           1          
  100CL  102 1.00000E-02          81                     1    2           1
 -4  DISP        4    1
 -5  D1          1    2    1    0
 -5  D2          1    2    2    0
 -5  D3          1    2    3    0
 -5  ALL         1    2    0    0    1ALL
 -1         5 0.00000E+00 0.00000E+00 0.00000E+00
 -1         6 0.00000E+00 0.00000E+00 0.00000E+00
 -1         7 0.00000E+00 0.00000E+00 0.00000E+00
 -1         8 0.00000E+00 0.00000E+00 0.00000E+00
 -1        21 0.00000E+00 0.00000E+00 0.00000E+00
 -1        22 0.00000E+00 0.00000E+00 0.00000E+00
 -1        23 0.00000E+00 0.00000E+00 0.00000E+00
 -1        24 0.00000E+00 0.00000E+00 0.00000E+00
 -1        25 0.00000E+00 0.00000E+00 0.00000E+00
 -1        26 0.00000E+00 0.00000E+00 0.00000E+00
 -1        27 0.00000E+00 0.00000E+00 0.00000E+00
 -1        28 0.00000E+00 0.00000E+00 0.00000E+00
 -1        29 0.00000E+00 0.00000E+00 0.00000E+00
 -1        30 0.00000E+00 0.00000E+00 0.00000E+00
 -1        31 0.00000E+00 0.00000E+00 0.00000E+00
 -1        32 0.00000E+00 0.00000E+00 0.00000E+00
 -1        44-1.55733E-04 1.60457E-03-2.34022E-04
 -1        45-3.72770E-05 1.24752E-03-3.77244E-04
 -1        46 4.26877E-05 9.14950E-04-4.32196E-04
 -1        47-5.33866E-05 3.70516E-04-2.84146E-04
 -1        48 5.33808E-05 3.70505E-04-2.84116E-04
 -1        49-4.26554E-05 9.14949E-04-4.32174E-04
 -1        50 3.71742E-05 1.24753E-03-3.77240E-04
 -1        51 1.55669E-04 1.60467E-03-2.34021E-04
 -1        74 1.53014E-04 1.61190E-03 2.34226E-04
 -1        75 3.50469E-05 1.25070E-03 3.77210E-04
 -1        76-4.15468E-05 9.13490E-04 4.32102E-04
 -1        77 5.39992E-05 3.69432E-04 2.84194E-04
 -1        89-1.53150E-04 1.61183E-03 2.34241E-04
 -1        90-3.51179E-05 1.25066E-03 3.77174E-04
 -1        91 4.15462E-05 9.13522E-04 4.32146E-04
 -1        92-5.39972E-05 3.69433E-04 2.84214E-04
 -1        98 0.00000E+00 0.00000E+00 0.00000E+00
 -1        99 0.00000E+00 0.00000E+00 0.00000E+00
 -1       100 0.00000E+00 0.00000E+00 0.00000E+00
 -1       101 0.00000E+00 0.00000E+00 0.00000E+00
 -1       102 0.00000E+00 0.00000E+00 0.00000E+00
 -1       124 5.88749E-06 1.48090E-03-2.20526E-04
 -1       125-1.29054E-07 1.76769E-03-2.31295E-04
 -1       126-6.02573E-06 1.48091E-03-2.20577E-04
 -1       127 1.07421E-09 1.30183E-03-4.17685E-04
 -1       128-3.77422E-06 9.58862E-04-4.63534E-04
 -1       129-3.38825E-08 8.89551E-04-4.72542E-04
 -1       130 3.75051E-06 9.58851E-04-4.63532E-04
 -1       131 4.60819E-09 3.75412E-04-2.76020E-04
 -1       153 1.26659E-04 1.91599E-03-1.03997E-04
 -1       154 6.11209E-07 1.69553E-03 1.32729E-07
 -1       155-1.26554E-04 1.91950E-03 1.04108E-04
 -1       156 8.43781E-07 1.40635E-03 3.97717E-07
 -1       157-2.53807E-05 7.93653E-04-1.86000E-04
 -1       158-5.42580E-07 8.10449E-04 1.91051E-07
 -1       159 2.51792E-05 7.93046E-04 1.86085E-04
 -1       160-2.72464E-07 3.08197E-04-2.73013E-08
 -1       182 4.46326E-06 1.47796E-03 2.20774E-04
 -1       183-5.37913E-08 1.77306E-03 2.31519E-04
 -1       184-4.56433E-06 1.47796E-03 2.20823E-04
 -1       185-1.63955E-08 1.30358E-03 4.17329E-04
 -1       186-3.21754E-06 9.60126E-04 4.63707E-04
 -1       187-1.35829E-08 8.89194E-04 4.72600E-04
 -1       188 3.19810E-06 9.60133E-04 4.63717E-04
 -1       189 1.62439E-09 3.75225E-04 2.76050E-04
 -1       211 1.26486E-04 1.91939E-03 1.04178E-04
 -1       212-6.97894E-07 1.69545E-03 6.75386E-08
 -1       213-1.26708E-04 1.91603E-03-1.03961E-04
 -1       214-8.52970E-07 1.40636E-03 4.19289E-07
 -1       215-2.52082E-05 7.93059E-04 1.86097E-04
 -1       216 5.02975E-07 8.10431E-04 2.15191E-07
 -1       217 2.53716E-05 7.93637E-04-1.85993E-04
 -1       218 2.68947E-07 3.08199E-04-2.50573E-08
 -1       250-5.69516E-08 1.90877E-03-1.03072E-04
 -1       251-8.54254E-07 1.20983E-03 4.27289E-09
 -1       252 3.96148E-08 1.54067E-03 3.08475E-08
 -1       253 8.40308E-07 1.20988E-03 8.56810E-08
 -1       254-1.20521E-08 1.90949E-03 1.03495E-04
 -1       255-2.64691E-08 1.37522E-03 1.95688E-07
 -1       256-1.16124E-08 7.83300E-04-2.07363E-04
 -1       257 3.85048E-07 9.14151E-04 6.39668E-08
 -1       258 6.51522E-09 8.12336E-04 7.67322E-08
 -1       259-3.94081E-07 9.14159E-04 4.02368E-08
 -1       260-2.43557E-09 7.83534E-04 2.07483E-04
 -1       261-7.21832E-09 3.48608E-04 1.94802E-08
 -3
    1PSTEP                         3           3           1          
  100CL  103 1.50000E-02          81                     1    3           1
 -4  DISP        4    1
 -5  D1          1    2    1    0
 -5  D2          1    2    2    0
 -5  D3          1    2    3    0
 -5  ALL         1    2    0    0    1ALL
 -1         5 0.00000E+00 0.00000E+00 0.00000E+00
 -1         6 0.00000E+00 0.00000E+00 0.00000E+00
 -1         7 0.00000E+00 0.00000E+00 0.00000E+00
 -1         8 0.00000E+00 0.00000E+00 0.00000E+00
 -1        21 0.00000E+00 0.00000E+00 0.00000E+00
 -1        22 0.00000E+00 0.00000E+00 0.00000E+00
 -1        23 0.00000E+00 0.00000E+00 0.00000E+00
 -1        24 0.00000E+00 0.00000E+00 0.00000E+00
 -1        25 0.00000E+00 0.00000E+00 0.00000E+00
 -1        26 0.00000E+00 0.00000E+00 0.00000E+00
 -1        27 0.00000E+00 0.00000E+00 0.00000E+00
 -1        28 0.00000E+00 0.00000E+00 0.00000E+00
 -1        29 0.00000E+00 0.00000E+00 0.00000E+00
 -1        30 0.00000E+00 0.00000E+00 0.00000E+00
 -1        31 0.00000E+00 0.00000E+00 0.00000E+00
 -1        32 0.00000E+00 0.00000E+00 0.00000E+00
 -1        44 1.20014E-04-1.27569E-03 1.85483E-04
 -1        45 2.72500E-05-9.90953E-04 2.98936E-04
 -1        46-3.27176E-05-7.23559E-04 3.42234E-04
 -1        47 4.29043E-05-2.92932E-04 2.25111E-04
 -1        48-4.29097E-05-2.92934E-04 2.25105E-04
 -1        49 3.27274E-05-7.23560E-04 3.42211E-04
 -1        50-2.72608E-05-9.90939E-04 2.98957E-04
 -1        51-1.19875E-04-1.27582E-03 1.85488E-04
 -1        74-1.23189E-04-1.27211E-03-1.85531E-04
 -1        75-2.90126E-05-9.89069E-04-2.99026E-04
 -1        76 3.33003E-05-7.24246E-04-3.42258E-04
 -1        77-4.24211E-05-2.93467E-04-2.25108E-04
 -1        89 1.23175E-04-1.27212E-03-1.85546E-04
 -1        90 2.90353E-05-9.89052E-04-2.99033E-04
 -1        91-3.33165E-05-7.24252E-04-3.42247E-04
 -1        92 4.24215E-05-2.93470E-04-2.25108E-04
 -1        98 0.00000E+00 0.00000E+00 0.00000E+00
 -1        99 0.00000E+00 0.00000E+00 0.00000E+00
 -1       100 0.00000E+00 0.00000E+00 0.00000E+00
 -1       101 0.00000E+00 0.00000E+00 0.00000E+00
 -1       102 0.00000E+00 0.00000E+00 0.00000E+00
 -1       124-3.31776E-06-1.17203E-03 1.74826E-04
 -1       125 1.79724E-09-1.40135E-03 1.83355E-04
 -1       126 3.37785E-06-1.17197E-03 1.74802E-04
 -1       127 1.26119E-08-1.03096E-03 3.30253E-04
 -1       128 2.55258E-06-7.59977E-04 3.67251E-04
 -1       129-1.22908E-08-7.04922E-04 3.74289E-04
 -1       130-2.55750E-06-7.59976E-04 3.67268E-04
 -1       131-4.36697E-10-2.97605E-04 2.18733E-04
 -1       153-9.96405E-05-1.52063E-03 8.24245E-05
 -1       154-3.62304E-07-1.34622E-03-2.75360E-08
 -1       155 1.00620E-04-1.51680E-03-8.24728E-05
 -1       156 1.12905E-07-1.11489E-03 2.19413E-07
 -1       157 2.00203E-05-6.28219E-04 1.47394E-04
 -1       158 1.05238E-07-6.41677E-04 6.14217E-08
 -1       159-2.02227E-05-6.29015E-04-1.47435E-04
 -1       160-4.48714E-08-2.43903E-04-1.43691E-08
 -1       182-7.10475E-06-1.17326E-03-1.74793E-04
 -1       183 3.00791E-08-1.40000E-03-1.83412E-04
 -1       184 7.12069E-06-1.17328E-03-1.74797E-04
 -1       185-5.80704E-09-1.03092E-03-3.30695E-04
 -1       186 3.32897E-06-7.59736E-04-3.67273E-04
 -1       187 1.05681E-08-7.05377E-04-3.74442E-04
 -1       188-3.32454E-06-7.59735E-04-3.67267E-04
 -1       189-2.11857E-09-2.97616E-04-2.18733E-04
 -1       211-1.00639E-04-1.51680E-03-8.24248E-05
 -1       212 3.71907E-07-1.34625E-03 2.78808E-09
 -1       213 9.97101E-05-1.52071E-03 8.23267E-05
 -1       214-1.16760E-07-1.11492E-03 2.17782E-07
 -1       215 2.02195E-05-6.29015E-04-1.47440E-04
 -1       216-1.01828E-07-6.41665E-04 5.64283E-08
 -1       217-2.00115E-05-6.28212E-04 1.47406E-04
 -1       218 4.35613E-08-2.43903E-04-1.48288E-08
 -1       250-1.14870E-08-1.51226E-03 8.18548E-05
 -1       251-1.44200E-06-9.57621E-04-8.17486E-08
 -1       252-1.94550E-08-1.22200E-03 3.26833E-08
 -1       253 1.43052E-06-9.57610E-04-1.07129E-07
 -1       254 1.11124E-08-1.51487E-03-8.17594E-05
 -1       255 2.94244E-09-1.09029E-03 2.83413E-09
 -1       256-7.87307E-09-6.20645E-04 1.64270E-04
 -1       257 3.01345E-07-7.24549E-04-5.49257E-09
 -1       258-4.34845E-09-6.43061E-04-1.68615E-08
 -1       259-3.05190E-07-7.24553E-04-4.43643E-10
 -1       260 2.14987E-09-6.20148E-04-1.64293E-04
 -1       261 8.18489E-10-2.76036E-04-2.79510E-09
 -3
    1PSTEP                         4           4           1          
  100CL  104 2.00000E-02          81                     1    4           1
 -4  DISP        4    1
 -5  D1          1    2    1    0
 -5  D2          1    2    2    0
 -5  D3          1    2    3    0
 -5  ALL         1    2    0    0    1ALL
 -1         5 0.00000E+00 0.00000E+00 0.00000E+00
 -1         6 0.00000E+00 0.00000E+00 0.00000E+00
 -1         7 0.00000E+00 0.00000E+00 0.00000E+00
 -1         8 0.00000E+00 0.00000E+00 0.00000E+00
 -1        21 0.00000E+00 0.00000E+00 0.00000E+00
 -1        22 0.00000E+00 0.00000E+00 0.00000E+00
 -1        23 0.00000E+00 0.00000E+00 0.00000E+00
 -1        24 0.00000E+00 0.00000E+00 0.00000E+00
 -1        25 0.00000E+00 0.00000E+00 0.00000E+00
 -1        26 0.00000E+00 0.00000E+00 0.00000E+00
 -1        27 0.00000E+00 0.00000E+00 0.00000E+00
 -1        28 0.00000E+00 0.00000E+00 0.00000E+00
 -1        29 0.00000E+00 0.00000E+00 0.00000E+00
 -1        30 0.00000E+00 0.00000E+00 0.00000E+00
 -1        31 0.00000E+00 0.00000E+00 0.00000E+00
 -1        32 0.00000E+00 0.00000E+00 0.00000E+00
 -1        44-9.75728E-05 9.85608E-04-1.43834E-04
 -1        45-2.31310E-05 7.66740E-04-2.31846E-04
 -1        46 2.63150E-05 5.62223E-04-2.65235E-04
 -1        47-3.26727E-05 2.27978E-04-1.74684E-04
 -1        48 3.26745E-05 2.27982E-04-1.74706E-04
 -1        49-2.63312E-05 5.62210E-04-2.65259E-04
 -1        50 2.31774E-05 7.66755E-04-2.31838E-04
 -1        51 9.76326E-05 9.85483E-04-1.43803E-04
 -1        74 9.46380E-05 9.88332E-04 1.43847E-04
 -1        75 2.15171E-05 7.68273E-04 2.31799E-04
 -1        76-2.57279E-05 5.61706E-04 2.65244E-04
 -1        77 3.31326E-05 2.27552E-04 1.74702E-04
 -1        89-9.45665E-05 9.88356E-04 1.43822E-04
 -1        90-2.14985E-05 7.68306E-04 2.31814E-04
 -1        91 2.57334E-05 5.61681E-04 2.65239E-04
 -1        92-3.31345E-05 2.27552E-04 1.74703E-04
 -1        98 0.00000E+00 0.00000E+00 0.00000E+00
 -1        99 0.00000E+00 0.00000E+00 0.00000E+00
 -1       100 0.00000E+00 0.00000E+00 0.00000E+00
 -1       101 0.00000E+00 0.00000E+00 0.00000E+00
 -1       102 0.00000E+00 0.00000E+00 0.00000E+00
 -1       124 6.07068E-06 9.10397E-04-1.35525E-04
 -1       125 6.74504E-08 1.08619E-03-1.42258E-04
 -1       126-5.98783E-06 9.10430E-04-1.35497E-04
 -1       127-3.19793E-09 8.00239E-04-2.56459E-04
 -1       128-2.70394E-06 5.89218E-04-2.84823E-04
 -1       129 1.39384E-08 5.46908E-04-2.90493E-04
 -1       130 2.71344E-06 5.89230E-04-2.84820E-04
 -1       131-2.21184E-09 2.30822E-04-1.69641E-04
 -1       153 7.94342E-05 1.17731E-03-6.38523E-05
 -1       154-5.34051E-07 1.04649E-03-4.59552E-08
 -1       155-7.84139E-05 1.18045E-03 6.38860E-05
 -1       156 3.22176E-08 8.64836E-04 1.64516E-07
 -1       157-1.60037E-05 4.88321E-04-1.14264E-04
 -1       158 1.41958E-07 4.98209E-04 7.24215E-08
 -1       159 1.57939E-05 4.87669E-04 1.14243E-04
 -1       160-1.51090E-08 1.89189E-04 2.00484E-09
 -1       182 2.72310E-06 9.09474E-04 1.35555E-04
 -1       183 9.11572E-09 1.08703E-03 1.42277E-04
 -1       184-2.68951E-06 9.09464E-04 1.35568E-04
 -1       185 1.15094E-08 8.00134E-04 2.56068E-04
 -1       186-2.00332E-06 5.89428E-04 2.84837E-04
 -1       187 2.98631E-09 5.46673E-04 2.90373E-04
 -1       188 2.01206E-06 5.89421E-04 2.84831E-04
 -1       189-3.21770E-10 2.30869E-04 1.69652E-04
 -1       211 7.84208E-05 1.18051E-03 6.39077E-05
 -1       212 5.31815E-07 1.04655E-03 1.80387E-08
 -1       213-7.94129E-05 1.17727E-03-6.39132E-05
 -1       214-2.32558E-08 8.64807E-04 1.62725E-07
 -1       215-1.57812E-05 4.87665E-04 1.14236E-04
 -1       216-1.32675E-07 4.98232E-04 6.02826E-08
 -1       217 1.60025E-05 4.88329E-04-1.14258E-04
 -1       218 1.74155E-08 1.89186E-04-1.99790E-09
 -1       250 2.87604E-08 1.17414E-03-6.34203E-05
 -1       251-1.08708E-06 7.42908E-04-5.59708E-08
 -1       252-1.96515E-08 9.47202E-04-7.01096E-08
 -1       253 1.07386E-06 7.42867E-04-9.12424E-08
 -1       254-2.56644E-09 1.17167E-03 6.34420E-05
 -1       255 6.85262E-09 8.46138E-04 2.99920E-08
 -1       256 5.92108E-09 4.80987E-04-1.27487E-04
 -1       257 2.27399E-07 5.62316E-04-7.42384E-10
 -1       258-3.39596E-10 4.98598E-04 7.26447E-09
 -1       259-2.25417E-07 5.62306E-04 6.32299E-09
 -1       260 8.48974E-10 4.81509E-04 1.27497E-04
 -1       261 2.72566E-09 2.14194E-04-5.40072E-09
 -3
    1PSTEP                         5           5           1          
  100CL  105 2.50000E-02          81                     1    5           1
 -4  DISP        4    1
 -5  D1          1    2    1    0
 -5  D2          1    2    2    0
 -5  D3          1    2    3    0
 -5  ALL         1    2    0    0    1ALL
 -1         5 0.00000E+00 0.00000E+00 0.00000E+00
 -1         6 0.00000E+00 0.00000E+00 0.00000E+00
 -1         7 0.00000E+00 0.00000E+00 0.00000E+00
 -1         8 0.00000E+00 0.00000E+00 0.00000E+00
 -1        21 0.00000E+00 0.00000E+00 0.00000E+00
 -1        22 0.00000E+00 0.00000E+00 0.00000E+00
 -1        23 0.00000E+00 0.00000E+00 0.00000E+00
 -1        24 0.00000E+00 0.00000E+00 0.00000E+00
 -1        25 0.00000E+00 0.00000E+00 0.00000E+00
 -1        26 0.00000E+00 0.00000E+00 0.00000E+00
 -1        27 0.00000E+00 0.00000E+00 0.00000E+00
 -1        28 0.00000E+00 0.00000E+00 0.00000E+00
 -1        29 0.00000E+00 0.00000E+00 0.00000E+00
 -1        30 0.00000E+00 0.00000E+00 0.00000E+00
 -1        31 0.00000E+00 0.00000E+00 0.00000E+00
 -1        32 0.00000E+00 0.00000E+00 0.00000E+00
 -1        44 7.17550E-05-7.46420E-04 1.08803E-04
 -1        45 1.62596E-05-5.80137E-04 1.75373E-04
 -1        46-1.95219E-05-4.24609E-04 2.00420E-04
 -1        47 2.49582E-05-1.71981E-04 1.32006E-04
 -1        48-2.49691E-05-1.71985E-04 1.32030E-04
 -1        49 1.95231E-05-4.24631E-04 2.00454E-04
 -1        50-1.63803E-05-5.80093E-04 1.75367E-04
 -1        51-7.17628E-05-7.46419E-04 1.08794E-04
 -1        74-7.54144E-05-7.42368E-04-1.08762E-04
 -1        75-1.84226E-05-5.78031E-04-1.75386E-04
 -1        76 2.03706E-05-4.25488E-04-2.00488E-04
 -1        77-2.43922E-05-1.72590E-04-1.32034E-04
 -1        89 7.52650E-05-7.42533E-04-1.08781E-04
 -1        90 1.83406E-05-5.78018E-04-1.75389E-04
 -1        91-2.03801E-05-4.25491E-04-2.00450E-04
 -1        92 2.43846E-05-1.72581E-04-1.32004E-04
 -1        98 0.00000E+00 0.00000E+00 0.00000E+00
 -1        99 0.00000E+00 0.00000E+00 0.00000E+00
 -1       100 0.00000E+00 0.00000E+00 0.00000E+00
 -1       101 0.00000E+00 0.00000E+00 0.00000E+00
 -1       102 0.00000E+00 0.00000E+00 0.00000E+00
 -1       124-1.76792E-06-6.87339E-04 1.02619E-04
 -1       125-8.80854E-08-8.21089E-04 1.07671E-04
 -1       126 1.68607E-06-6.87288E-04 1.02537E-04
 -1       127-8.36499E-09-6.04557E-04 1.93429E-04
 -1       128 1.44091E-06-4.45249E-04 2.15256E-04
 -1       129-4.13704E-08-4.12866E-04 2.19455E-04
 -1       130-1.48500E-06-4.45247E-04 2.15259E-04
 -1       131-1.39596E-09-1.74347E-04 1.28150E-04
 -1       153-5.93187E-05-8.93085E-04 4.83737E-05
 -1       154-5.09479E-07-7.91264E-04 4.68142E-08
 -1       155 6.04557E-05-8.89645E-04-4.84114E-05
 -1       156 1.02983E-07-6.52929E-04 2.25219E-07
 -1       157 1.19144E-05-3.68468E-04 8.62909E-05
 -1       158 5.74532E-08-3.76749E-04 6.95416E-08
 -1       159-1.21825E-05-3.69208E-04-8.63314E-05
 -1       160-4.96828E-08-1.42935E-04-1.22180E-08
 -1       182-5.00830E-06-6.88654E-04-1.02523E-04
 -1       183-9.08485E-08-8.19528E-04-1.07590E-04
 -1       184 4.86086E-06-6.88705E-04-1.02516E-04
 -1       185-2.29086E-08-6.04539E-04-1.93921E-04
 -1       186 2.17685E-06-4.44935E-04-2.15245E-04
 -1       187-2.15086E-08-4.13206E-04-2.19607E-04
 -1       188-2.20753E-06-4.44943E-04-2.15230E-04
 -1       189-5.88796E-10-1.74346E-04-1.28149E-04
 -1       211-6.05109E-05-8.89731E-04-4.83514E-05
 -1       212 5.21313E-07-7.91235E-04-5.93340E-08
 -1       213 5.93606E-05-8.93045E-04 4.83260E-05
 -1       214-1.70521E-07-6.52954E-04 2.36265E-07
 -1       215 1.21624E-05-3.69191E-04-8.63233E-05
 -1       216-8.09598E-08-3.76721E-04 1.03349E-07
 -1       217-1.19332E-05-3.68470E-04 8.63213E-05
 -1       218 3.54121E-08-1.42935E-04 5.93253E-09
 -1       250-6.15182E-08-8.83727E-04 4.80789E-05
 -1       251-1.06323E-06-5.61400E-04-9.21211E-08
 -1       252-1.45835E-08-7.14542E-04-5.20926E-08
 -1       253 1.04134E-06-5.61424E-04-7.05227E-08
 -1       254-5.68454E-08-8.85764E-04-4.79616E-05
 -1       255-2.08600E-08-6.39441E-04 2.10607E-08
 -1       256-2.80816E-08-3.63747E-04 9.63870E-05
 -1       257 2.37434E-07-4.24726E-04 5.65846E-09
 -1       258-1.86779E-08-3.76377E-04 2.99940E-09
 -1       259-2.64314E-07-4.24738E-04-4.24458E-09
 -1       260-1.95736E-08-3.63297E-04-9.63883E-05
 -1       261-6.94442E-09-1.61770E-04 1.23828E-09
 -3
    1PSTEP                         6           6           1          
  100CL  106 3.00000E-02          81                     1    6           1
 -4  DISP        4    1
 -5  D1          1    2    1    0
 -5  D2          1    2    2    0
 -5  D3          1    2    3    0
 -5  ALL         1    2    0    0    1ALL
 -1         5 0.00000E+00 0.00000E+00 0.00000E+00
 -1         6 0.00000E+00 0.00000E+00 0.00000E+00
 -1         7 0.00000E+00 0.00000E+00 0.00000E+00
 -1         8 0.00000E+00 0.00000E+00 0.00000E+00
 -1        21 0.00000E+00 0.00000E+00 0.00000E+00
 -1        22 0.00000E+00 0.00000E+00 0.00000E+00
 -1        23 0.00000E+00 0.00000E+00 0.00000E+00
 -1        24 0.00000E+00 0.00000E+00 0.00000E+00
 -1        25 0.00000E+00 0.00000E+00 0.00000E+00
 -1        26 0.00000E+00 0.00000E+00 0.00000E+00
 -1        27 0.00000E+00 0.00000E+00 0.00000E+00
 -1        28 0.00000E+00 0.00000E+00 0.00000E+00
 -1        29 0.00000E+00 0.00000E+00 0.00000E+00
 -1        30 0.00000E+00 0.00000E+00 0.00000E+00
 -1        31 0.00000E+00 0.00000E+00 0.00000E+00
 -1        32 0.00000E+00 0.00000E+00 0.00000E+00
 -1        44-5.17609E-05 5.40500E-04-7.87310E-05
 -1        45-1.17652E-05 4.20232E-04-1.26775E-04
 -1        46 1.42048E-05 3.07811E-04-1.45221E-04
 -1        47-1.81298E-05 1.24631E-04-9.56612E-05