    1C
    1UUSER                                                              
    1UDATE              16.july.2018                                    
    1UTIME              20:25:25                                        
    1UHOST                                                              
    1UPGM               CalculiX                                        
    1UVERSION           Version 2.13                             
    1UCOMPILETIME       jue jun 14 00:40:39 CEST 2018                    
    1UDIR                                                               
    1UDBN                                                               
    1UMAT    1EL                                                        
    2C                            81                                     1
 -1         5 0.00000E+00 0.00000E+00 8.00000E+00
 -1         6 1.00000E+00 0.00000E+00 8.00000E+00
 -1         7 1.00000E+00 1.00000E+00 8.00000E+00
 -1         8 0.00000E+00 1.00000E+00 8.00000E+00
 -1        21 2.50000E-01 0.00000E+00 8.00000E+00
 -1        22 5.00000E-01 0.00000E+00 8.00000E+00
 -1        23 7.50000E-01 0.00000E+00 8.00000E+00
 -1        24 1.00000E+00 2.50000E-01 8.00000E+00
 -1        25 1.00000E+00 5.00000E-01 8.00000E+00
 -1        26 1.00000E+00 7.50000E-01 8.00000E+00
 -1        27 7.50000E-01 1.00000E+00 8.00000E+00
 -1        28 5.00000E-01 1.00000E+00 8.00000E+00
 -1        29 2.50000E-01 1.00000E+00 8.00000E+00
 -1        30 0.00000E+00 7.50000E-01 8.00000E+00
 -1        31 0.00000E+00 5.00000E-01 8.00000E+00
 -1        32 0.00000E+00 2.50000E-01 8.00000E+00
 -1        44 1.00000E+00 0.00000E+00 6.00000E+00
 -1        45 1.00000E+00 0.00000E+00 6.50000E+00
 -1        46 1.00000E+00 0.00000E+00 7.00000E+00
 -1        47 1.00000E+00 0.00000E+00 7.50000E+00
 -1        48 0.00000E+00 0.00000E+00 7.50000E+00
 -1        49 0.00000E+00 0.00000E+00 7.00000E+00
 -1        50 0.00000E+00 0.00000E+00 6.50000E+00
 -1        51 0.00000E+00 0.00000E+00 6.00000E+00
 -1        74 1.00000E+00 1.00000E+00 6.00000E+00
 -1        75 1.00000E+00 1.00000E+00 6.50000E+00
 -1        76 1.00000E+00 1.00000E+00 7.00000E+00
 -1        77 1.00000E+00 1.00000E+00 7.50000E+00
 -1        89 0.00000E+00 1.00000E+00 6.00000E+00
 -1        90 0.00000E+00 1.00000E+00 6.50000E+00
 -1        91 0.00000E+00 1.00000E+00 7.00000E+00
 -1        92 0.00000E+00 1.00000E+00 7.50000E+00
 -1        98 5.00000E-01 2.50000E-01 8.00000E+00
 -1        99 2.50000E-01 5.00000E-01 8.00000E+00
 -1       100 5.00000E-01 5.00000E-01 8.00000E+00
 -1       101 7.50000E-01 5.00000E-01 8.00000E+00
 -1       102 5.00000E-01 7.50000E-01 8.00000E+00
 -1       124 2.50000E-01 0.00000E+00 6.00000E+00
 -1       125 5.00000E-01 0.00000E+00 6.00000E+00
 -1       126 7.50000E-01 0.00000E+00 6.00000E+00
 -1       127 5.00000E-01 0.00000E+00 6.50000E+00
 -1       128 2.50000E-01 0.00000E+00 7.00000E+00
 -1       129 5.00000E-01 0.00000E+00 7.00000E+00
 -1       130 7.50000E-01 0.00000E+00 7.00000E+00
 -1       131 5.00000E-01 0.00000E+00 7.50000E+00
 -1       153 1.00000E+00 2.50000E-01 6.00000E+00
 -1       154 1.00000E+00 5.00000E-01 6.00000E+00
 -1       155 1.00000E+00 7.50000E-01 6.00000E+00
 -1       156 1.00000E+00 5.00000E-01 6.50000E+00
 -1       157 1.00000E+00 2.50000E-01 7.00000E+00
 -1       158 1.00000E+00 5.00000E-01 7.00000E+00
 -1       159 1.00000E+00 7.50000E-01 7.00000E+00
 -1       160 1.00000E+00 5.00000E-01 7.50000E+00
 -1       182 7.50000E-01 1.00000E+00 6.00000E+00
 -1       183 5.00000E-01 1.00000E+00 6.00000E+00
 -1       184 2.50000E-01 1.00000E+00 6.00000E+00
 -1       185 5.00000E-01 1.00000E+00 6.50000E+00
 -1       186 7.50000E-01 1.00000E+00 7.00000E+00
 -1       187 5.00000E-01 1.00000E+00 7.00000E+00
 -1       188 2.50000E-01 1.00000E+00 7.00000E+00
 -1       189 5.00000E-01 1.00000E+00 7.50000E+00
 -1       211 0.00000E+00 7.50000E-01 6.00000E+00
 -1       212 0.00000E+00 5.00000E-01 6.00000E+00
 -1       213 0.00000E+00 2.50000E-01 6.00000E+00
 -1       214 0.00000E+00 5.00000E-01 6.50000E+00
 -1       215 0.00000E+00 7.50000E-01 7.00000E+00
 -1       216 0.00000E+00 5.00000E-01 7.00000E+00
 -1       217 0.00000E+00 2.50000E-01 7.00000E+00
 -1       218 0.00000E+00 5.00000E-01 7.50000E+00
 -1       250 5.00000E-01 2.50000E-01 6.00000E+00
 -1       251 2.50000E-01 5.00000E-01 6.00000E+00
 -1       252 5.00000E-01 5.00000E-01 6.00000E+00
 -1       253 7.50000E-01 5.00000E-01 6.00000E+00
 -1       254 5.00000E-01 7.50000E-01 6.00000E+00
 -1       255 5.00000E-01 5.00000E-01 6.50000E+00
 -1       256 5.00000E-01 2.50000E-01 7.00000E+00
 -1       257 2.50000E-01 5.00000E-01 7.00000E+00
 -1       258 5.00000E-01 5.00000E-01 7.00000E+00
 -1       259 7.50000E-01 5.00000E-01 7.00000E+00
 -1       260 5.00000E-01 7.50000E-01 7.00000E+00
 -1       261 5.00000E-01 5.00000E-01 7.50000E+00
 -3
    3C                             8                                     1
 -1        25    4    0    1
 -2        51       125       252       212        49       129       258       216       124       250
 -2       251       213        50       127       255       214       128       256       257       217
 -1        26    4    0    1
 -2       125        44       154       252       129        46       158       258       126       153
 -2       253       250       127        45       156       255       130       157       259       256
 -1        27    4    0    1
 -2       212       252       183        89       216       258       187        91       251       254
 -2       184       211       214       255       185        90       257       260       188       215
 -1        28    4    0    1
 -2       252       154        74       183       258       158        76       187       253       155
 -2       182       254       255       156        75       185       259       159       186       260
 -1        29    4    0    1
 -2        49       129       258       216         5        22       100        31       128       256
 -2       257       217        48       131       261       218        21        98        99        32
 -1        30    4    0    1
 -2       129        46       158       258        22         6        25       100       130       157
 -2       259       256       131        47       160       261        23        24       101        98
 -1        31    4    0    1
 -2       216       258       187        91        31       100        28         8       257       260
 -2       188       215       218       261       189        92        99       102        29        30
 -1        32    4    0    1
 -2       258       158        76       187       100        25         7        28       259       159
 -2       186       260       261       160        77       189       101        26        27       102
 -3
    1PSTEP                         1           1           1          
  100CL  101 5.00000E-03          81                     1    1           1
 -4  DISP        4    1
 -5  D1          1    2    1    0
 -5  D2          1    2    2    0
 -5  D3          1    2    3    0
 -5  ALL         1    2    0    0    1ALL
 -1         5 0.00000E+00 0.00000E+00 0.00000E+00
 -1         6 0.00000E+00 0.00000E+00 0.00000E+00
 -1         7 0.00000E+00 0.00000E+00 0.00000E+00
 -1         8 0.00000E+00 0.00000E+00 0.00000E+00
 -1        21 0.00000E+00 0.00000E+00 0.00000E+00
 -1        22 0.00000E+00 0.00000E+00 0.00000E+00
 -1        23 0.00000E+00 0.00000E+00 0.00000E+00
 -1        24 0.00000E+00 0.00000E+00 0.00000E+00
 -1        25 0.00000E+00 0.00000E+00 0.00000E+00
 -1        26 0.00000E+00 0.00000E+00 0.00000E+00
 -1        27 0.00000E+00 0.00000E+00 0.00000E+00
 -1        28 0.00000E+00 0.00000E+00 0.00000E+00
 -1        29 0.00000E+00 0.00000E+00 0.00000E+00
 -1        30 0.00000E+00 0.00000E+00 0.00000E+00
 -1        31 0.00000E+00 0.00000E+00 0.00000E+00
 -1        32 0.00000E+00 0.00000E+00 0.00000E+00
 -1        44-6.04949E-05-3.46516E-03 4.48241E-04
 -1        45 5.66560E-05-2.56203E-03 7.85341E-04
 -1        46-4.76628E-05-1.79522E-03 9.49006E-04
 -1        47 1.30993E-04-6.74895E-04 5.43067E-04
 -1        48-1.30994E-04-6.74895E-04 5.43069E-04
 -1        49 4.76610E-05-1.79522E-03 9.49009E-04
 -1        50-5.66620E-05-2.56203E-03 7.85342E-04
 -1        51 6.04967E-05-3.46515E-03 4.48235E-04
 -1        74 3.19606E-04-4.41274E-03-4.94233E-04
 -1        75 1.91489E-04-2.97242E-03-7.84601E-04
 -1        76-1.10576E-04-1.59689E-03-9.49670E-04
 -1        77-2.07946E-04-5.26460E-04-5.58063E-04
 -1        89-3.19601E-04-4.41275E-03-4.94243E-04
 -1        90-1.91495E-04-2.97242E-03-7.84601E-04
 -1        91 1.10574E-04-1.59689E-03-9.49668E-04
 -1        92 2.07944E-04-5.26460E-04-5.58061E-04
 -1        98 0.00000E+00 0.00000E+00 0.00000E+00
 -1        99 0.00000E+00 0.00000E+00 0.00000E+00
 -1       100 0.00000E+00 0.00000E+00 0.00000E+00
 -1       101 0.00000E+00 0.00000E+00 0.00000E+00
 -1       102 0.00000E+00 0.00000E+00 0.00000E+00
 -1       124 1.49049E-04-2.96553E-03 4.29360E-04
 -1       125-3.52169E-09-3.58813E-03 4.48383E-04
 -1       126-1.49052E-04-2.96553E-03 4.29359E-04
 -1       127-1.13001E-09-2.56188E-03 9.03193E-04
 -1       128-8.99628E-06-1.95249E-03 9.47925E-04
 -1       129-2.25603E-09-1.81441E-03 9.41297E-04
 -1       130 8.99313E-06-1.95249E-03 9.47925E-04
 -1       131-5.06471E-10-7.36382E-04 5.56285E-04
 -1       153 7.00493E-05-3.63493E-03 1.91064E-04
 -1       154-1.20314E-04-2.50277E-03-2.08434E-05
 -1       155-6.53026E-05-3.88830E-03-2.37787E-04
 -1       156-1.20336E-04-2.78871E-03-6.46348E-05
 -1       157-2.05759E-05-1.50891E-03 3.92269E-04
 -1       158 8.84989E-05-1.56692E-03-2.94126E-05
 -1       159 4.67997E-05-1.47540E-03-4.10962E-04
 -1       160 3.98312E-05-6.56469E-04 4.89712E-06
 -1       182 1.14498E-04-2.56169E-03-4.70854E-04
 -1       183-2.99094E-09-4.35459E-03-4.76271E-04
 -1       184-1.14499E-04-2.56169E-03-4.70855E-04
 -1       185-1.22090E-09-2.83265E-03-8.73514E-04
 -1       186-4.40365E-05-2.16208E-03-9.82440E-04
 -1       187-2.26084E-09-1.83155E-03-9.63487E-04
 -1       188 4.40335E-05-2.16208E-03-9.82440E-04
 -1       189-4.99615E-10-7.19844E-04-5.64405E-04
 -1       211 6.53110E-05-3.88830E-03-2.37795E-04
 -1       212 1.20327E-04-2.50277E-03-2.08526E-05
 -1       213-7.00420E-05-3.63493E-03 1.91059E-04
 -1       214 1.20327E-04-2.78871E-03-6.46360E-05
 -1       215-4.68001E-05-1.47540E-03-4.10961E-04
 -1       216-8.84984E-05-1.56692E-03-2.94103E-05
 -1       217 2.05754E-05-1.50891E-03 3.92271E-04
 -1       218-3.98331E-05-6.56469E-04 4.89983E-06
 -1       250-5.05198E-09-4.08087E-03 1.74264E-04
 -1       251 3.04479E-05-2.57168E-03-1.04197E-05
 -1       252-6.38100E-09-3.12223E-03-1.60459E-05
 -1       253-3.04489E-05-2.57168E-03-1.04258E-05
 -1       254-4.73127E-09-4.41224E-03-2.54118E-04
 -1       255 1.26633E-10-2.59885E-03-3.20467E-05
 -1       256-3.00021E-09-1.60712E-03 3.95534E-04
 -1       257-4.11821E-05-1.74906E-03-1.20203E-05
 -1       258-3.73572E-09-1.79002E-03-1.45366E-05
 -1       259 4.11787E-05-1.74906E-03-1.20189E-05
 -1       260-3.02719E-09-1.62220E-03-4.18169E-04
 -1       261-2.37395E-10-7.17020E-04-1.97458E-06
 -3
    1PSTEP                         2           2           1          
  100CL  102 1.00000E-02          81                     1    2           1
 -4  DISP        4    1
 -5  D1          1    2    1    0
 -5  D2          1    2    2    0
 -5  D3          1    2    3    0
 -5  ALL         1    2    0    0    1ALL
 -1         5 0.00000E+00 0.00000E+00 0.00000E+00
 -1         6 0.00000E+00 0.00000E+00 0.00000E+00
 -1         7 0.00000E+00 0.00000E+00 0.00000E+00
 -1         8 0.00000E+00 0.00000E+00 0.00000E+00
 -1        21 0.00000E+00 0.00000E+00 0.00000E+00
 -1        22 0.00000E+00 0.00000E+00 0.00000E+00
 -1        23 0.00000E+00 0.00000E+00 0.00000E+00
 -1        24 0.00000E+00 0.00000E+00 0.00000E+00
 -1        25 0.00000E+00 0.00000E+00 0.00000E+00
 -1        26 0.00000E+00 0.00000E+00 0.00000E+00
 -1        27 0.00000E+00 0.00000E+00 0.00000E+00
 -1        28 0.00000E+00 0.00000E+00 0.00000E+00
 -1        29 0.00000E+00 0.00000E+00 0.00000E+00
 -1        30 0.00000E+00 0.00000E+00 0.00000E+00
 -1        31 0.00000E+00 0.00000E+00 0.00000E+00
 -1        32 0.00000E+00 0.00000E+00 0.00000E+00
 -1        44-1.49269E-04 1.61238E-03-2.33877E-04
 -1        45-3.44064E-05 1.25127E-03-3.77308E-04
 -1        46 4.04342E-05 9.11953E-04-4.32349E-04
 -1        47-5.43283E-05 3.69150E-04-2.83931E-04
 -1        48 5.43176E-05 3.69159E-04-2.83927E-04
 -1        49-4.04723E-05 9.11972E-04-4.32325E-04
 -1        50 3.44021E-05 1.25125E-03-3.77291E-04
 -1        51 1.49246E-04 1.61233E-03-2.33875E-04
 -1        74 1.50093E-04 1.61645E-03 2.34115E-04
 -1        75 3.41726E-05 1.25263E-03 3.77243E-04
 -1        76-4.12083E-05 9.12305E-04 4.32290E-04
 -1        77 5.43268E-05 3.68641E-04 2.84007E-04
 -1        89-1.50017E-04 1.61658E-03 2.34100E-04
 -1        90-3.41550E-05 1.25267E-03 3.77256E-04
 -1        91 4.11986E-05 9.12313E-04 4.32314E-04
 -1        92-5.43280E-05 3.68642E-04 2.84011E-04
 -1        98 0.00000E+00 0.00000E+00 0.00000E+00
 -1        99 0.00000E+00 0.00000E+00 0.00000E+00
 -1       100 0.00000E+00 0.00000E+00 0.00000E+00
 -1       101 0.00000E+00 0.00000E+00 0.00000E+00
 -1       102 0.00000E+00 0.00000E+00 0.00000E+00
 -1       124 8.37247E-06 1.47818E-03-2.20391E-04
 -1       125 1.86753E-08 1.77033E-03-2.31251E-04
 -1       126-8.38438E-06 1.47816E-03-2.20389E-04
 -1       127-2.38736E-08 1.30142E-03-4.17175E-04
 -1       128-4.00069E-06 9.59488E-04-4.63508E-04
 -1       129 2.81124E-09 8.89818E-04-4.72206E-04
 -1       130 3.98955E-06 9.59489E-04-4.63520E-04
 -1       131-6.54179E-09 3.75290E-04-2.76044E-04
 -1       153 1.23690E-04 1.91187E-03-1.03881E-04
 -1       154 1.40049E-06 1.69083E-03 9.04606E-08
 -1       155-1.24698E-04 1.92009E-03 1.04096E-04
 -1       156 7.29210E-07 1.40608E-03 2.31924E-07
 -1       157-2.47653E-05 7.93270E-04-1.86106E-04
 -1       158-2.84271E-07 8.09929E-04 1.17596E-07
 -1       159 2.48825E-05 7.92048E-04 1.86201E-04
 -1       160-2.95127E-07 3.08384E-04-6.49934E-08
 -1       182 2.24285E-06 1.47623E-03 2.20582E-04
 -1       183 4.23114E-08 1.77453E-03 2.31406E-04
 -1       184-2.18406E-06 1.47626E-03 2.20602E-04
 -1       185-1.06647E-09 1.30346E-03 4.17265E-04
 -1       186-2.83512E-06 9.60487E-04 4.63687E-04
 -1       187 8.05049E-09 8.88914E-04 4.72420E-04
 -1       188 2.84363E-06 9.60501E-04 4.63696E-04
 -1       189-9.95869E-10 3.75120E-04 2.76129E-04
 -1       211 1.24662E-04 1.92019E-03 1.04123E-04
 -1       212-1.49454E-06 1.69085E-03 1.42042E-07
 -1       213-1.23783E-04 1.91182E-03-1.03818E-04
 -1       214-7.56557E-07 1.40610E-03 2.42161E-07
 -1       215-2.48853E-05 7.92048E-04 1.86209E-04
 -1       216 2.77708E-07 8.09934E-04 1.21397E-07
 -1       217 2.47494E-05 7.93288E-04-1.86101E-04
 -1       218 2.92524E-07 3.08389E-04-5.66972E-08
 -1       250-2.41237E-08 1.91491E-03-1.03044E-04
 -1       251-3.92630E-06 1.21039E-03 9.25056E-08
 -1       252-8.02336E-08 1.54092E-03 1.38681E-07
 -1       253 3.81630E-06 1.21038E-03 9.26611E-08
 -1       254-1.36417E-08 1.90999E-03 1.03421E-04
 -1       255-1.45745E-08 1.37407E-03 1.78186E-07
 -1       256-5.47384E-09 7.82760E-04-2.07167E-04
 -1       257 8.57207E-07 9.13682E-04 6.07741E-08
 -1       258-9.92091E-09 8.13170E-04 6.48381E-08
 -1       259-8.74621E-07 9.13679E-04 5.33770E-08
 -1       260-2.57829E-09 7.83862E-04 2.07286E-04
 -1       261 2.88680E-09 3.48749E-04 2.01760E-08
 -3
    1PSTEP                         3           3           1          
  100CL  103 1.50000E-02          81                     1    3           1
 -4  DISP        4    1
 -5  D1          1    2    1    0
 -5  D2          1    2    2    0
 -5  D3          1    2    3    0
 -5  ALL         1    2    0    0    1ALL
 -1         5 0.00000E+00 0.00000E+00 0.00000E+00
 -1         6 0.00000E+00 0.00000E+00 0.00000E+00
 -1         7 0.00000E+00 0.00000E+00 0.00000E+00
 -1         8 0.00000E+00 0.00000E+00 0.00000E+00
 -1        21 0.00000E+00 0.00000E+00 0.00000E+00
 -1        22 0.00000E+00 0.00000E+00 0.00000E+00
 -1        23 0.00000E+00 0.00000E+00 0.00000E+00
 -1        24 0.00000E+00 0.00000E+00 0.00000E+00
 -1        25 0.00000E+00 0.00000E+00 0.00000E+00
 -1        26 0.00000E+00 0.00000E+00 0.00000E+00
 -1        27 0.00000E+00 0.00000E+00 0.00000E+00
 -1        28 0.00000E+00 0.00000E+00 0.00000E+00
 -1        29 0.00000E+00 0.00000E+00 0.00000E+00
 -1        30 0.00000E+00 0.00000E+00 0.00000E+00
 -1        31 0.00000E+00 0.00000E+00 0.00000E+00
 -1        32 0.00000E+00 0.00000E+00 0.00000E+00
 -1        44 1.17999E-04-1.27877E-03 1.85203E-04
 -1        45 2.61805E-05-9.92557E-04 2.98530E-04
 -1        46-3.14595E-05-7.21284E-04 3.42027E-04
 -1        47 4.32995E-05-2.92181E-04 2.25008E-04
 -1        48-4.32807E-05-2.92184E-04 2.24987E-04
 -1        49 3.15205E-05-7.21291E-04 3.41954E-04
 -1        50-2.61296E-05-9.92504E-04 2.98501E-04
 -1        51-1.17987E-04-1.27865E-03 1.85242E-04
 -1        74-1.24016E-04-1.27384E-03-1.85296E-04
 -1        75-2.93648E-05-9.89370E-04-2.98530E-04
 -1        76 3.42113E-05-7.23976E-04-3.41916E-04
 -1        77-4.22601E-05-2.93106E-04-2.24976E-04
 -1        89 1.24040E-04-1.27390E-03-1.85237E-04
 -1        90 2.94291E-05-9.89443E-04-2.98564E-04
 -1        91-3.41623E-05-7.23955E-04-3.41997E-04
 -1        92 4.22818E-05-2.93103E-04-2.25006E-04
 -1        98 0.00000E+00 0.00000E+00 0.00000E+00
 -1        99 0.00000E+00 0.00000E+00 0.00000E+00
 -1       100 0.00000E+00 0.00000E+00 0.00000E+00
 -1       101 0.00000E+00 0.00000E+00 0.00000E+00
 -1       102 0.00000E+00 0.00000E+00 0.00000E+00
 -1       124-7.27174E-06-1.16962E-03 1.74546E-04
 -1       125-1.73509E-08-1.40385E-03 1.83157E-04
 -1       126 7.29391E-06-1.16960E-03 1.74566E-04
 -1       127 4.57961E-08-1.03107E-03 3.29956E-04
 -1       128 3.10936E-06-7.60030E-04 3.67001E-04
 -1       129 5.24348E-09-7.04554E-04 3.73919E-04
 -1       130-3.08188E-06-7.60043E-04 3.67030E-04
 -1       131 9.56200E-09-2.97233E-04 2.18580E-04
 -1       153-9.89387E-05-1.51502E-03 8.23346E-05
 -1       154-1.35854E-06-1.34308E-03-1.76481E-08
 -1       155 1.01310E-04-1.52009E-03-8.22578E-05
 -1       156 4.24027E-08-1.11393E-03 3.51605E-07
 -1       157 1.98852E-05-6.28417E-04 1.47298E-04
 -1       158-1.18108E-07-6.41670E-04 1.41111E-07
 -1       159-2.03812E-05-6.27947E-04-1.47315E-04
 -1       160 7.44871E-08-2.44052E-04 6.97544E-08
 -1       182-2.78844E-06-1.17126E-03-1.74546E-04
 -1       183 2.01112E-08-1.40223E-03-1.83167E-04
 -1       184 2.85225E-06-1.17123E-03-1.74568E-04
 -1       185 4.11036E-08-1.03185E-03-3.30596E-04
 -1       186 2.65408E-06-7.59674E-04-3.66992E-04
 -1       187 1.07847E-08-7.03755E-04-3.74227E-04
 -1       188-2.62698E-06-7.59679E-04-3.67023E-04
 -1       189 8.70573E-09-2.97174E-04-2.18674E-04
 -1       211-1.01145E-04-1.52018E-03-8.23920E-05
 -1       212 1.56030E-06-1.34310E-03-7.69026E-08
 -1       213 9.90896E-05-1.51492E-03 8.22578E-05
 -1       214 6.85643E-08-1.11391E-03 3.17641E-07
 -1       215 2.04132E-05-6.27930E-04-1.47339E-04
 -1       216 1.50746E-07-6.41680E-04 1.06915E-07
 -1       217-1.98463E-05-6.28437E-04 1.47265E-04
 -1       218-5.88599E-08-2.44051E-04 3.58521E-08
 -1       250 7.28614E-08-1.51704E-03 8.16572E-05
 -1       251 3.51846E-06-9.58140E-04-4.51450E-08
 -1       252 1.82694E-07-1.22020E-03-7.36193E-09
 -1       253-3.26245E-06-9.58127E-04-3.84459E-08
 -1       254 9.31116E-08-1.51059E-03-8.16524E-05
 -1       255 4.59105E-08-1.08877E-03-4.31419E-08
 -1       256 2.43160E-08-6.19716E-04 1.64171E-04
 -1       257-5.09001E-07-7.24054E-04-2.09426E-08
 -1       258 3.64875E-08-6.43559E-04 2.00399E-09
 -1       259 5.68279E-07-7.24050E-04 7.09005E-10
 -1       260 2.68083E-08-6.20605E-04-1.64149E-04
 -1       261-1.50129E-09-2.76228E-04-9.61011E-09
 -3
    1PSTEP                         4           4           1          
  100CL  104 2.00000E-02          81                     1    4           1
 -4  DISP        4    1
 -5  D1          1    2    1    0
 -5  D2          1    2    2    0
 -5  D3          1    2    3    0
 -5  ALL         1    2    0    0    1ALL
 -1         5 0.00000E+00 0.00000E+00 0.00000E+00
 -1         6 0.00000E+00 0.00000E+00 0.00000E+00
 -1         7 0.00000E+00 0.00000E+00 0.00000E+00
 -1         8 0.00000E+00 0.00000E+00 0.00000E+00
 -1        21 0.00000E+00 0.00000E+00 0.00000E+00
 -1        22 0.00000E+00 0.00000E+00 0.00000E+00
 -1        23 0.00000E+00 0.00000E+00 0.00000E+00
 -1        24 0.00000E+00 0.00000E+00 0.00000E+00
 -1        25 0.00000E+00 0.00000E+00 0.00000E+00
 -1        26 0.00000E+00 0.00000E+00 0.00000E+00
 -1        27 0.00000E+00 0.00000E+00 0.00000E+00
 -1        28 0.00000E+00 0.00000E+00 0.00000E+00
 -1        29 0.00000E+00 0.00000E+00 0.00000E+00
 -1        30 0.00000E+00 0.00000E+00 0.00000E+00
 -1        31 0.00000E+00 0.00000E+00 0.00000E+00
 -1        32 0.00000E+00 0.00000E+00 0.00000E+00
 -1        44-9.54444E-05 9.88464E-04-1.43873E-04
 -1        45-2.22049E-05 7.68095E-04-2.31816E-04
 -1        46 2.55116E-05 5.61493E-04-2.65498E-04
 -1        47-3.30135E-05 2.27582E-04-1.74750E-04
 -1        48 3.30156E-05 2.27578E-04-1.74733E-04
 -1        49-2.54915E-05 5.61457E-04-2.65469E-04
 -1        50 2.21447E-05 7.68127E-04-2.31839E-04
 -1        51 9.54492E-05 9.88429E-04-1.43864E-04
 -1        74 9.49061E-05 9.88931E-04 1.43864E-04
 -1        75 2.19287E-05 7.68373E-04 2.31867E-04
 -1        76-2.62116E-05 5.62146E-04 2.65449E-04
 -1        77 3.30290E-05 2.27559E-04 1.74716E-04
 -1        89-9.50079E-05 9.88808E-04 1.43860E-04
 -1        90-2.19952E-05 7.68363E-04 2.31858E-04
 -1        91 2.62178E-05 5.62139E-04 2.65470E-04
 -1        92-3.30346E-05 2.27563E-04 1.74738E-04
 -1        98 0.00000E+00 0.00000E+00 0.00000E+00
 -1        99 0.00000E+00 0.00000E+00 0.00000E+00
 -1       100 0.00000E+00 0.00000E+00 0.00000E+00
 -1       101 0.00000E+00 0.00000E+00 0.00000E+00
 -1       102 0.00000E+00 0.00000E+00 0.00000E+00
 -1       124 6.82431E-06 9.09597E-04-1.35574E-04
 -1       125-4.33643E-08 1.08818E-03-1.42263E-04
 -1       126-6.85436E-06 9.09654E-04-1.35653E-04
 -1       127 7.58889E-09 8.00696E-04-2.56500E-04
 -1       128-2.74885E-06 5.89702E-04-2.84952E-04
 -1       129-1.90660E-08 5.46960E-04-2.90499E-04
 -1       130 2.73639E-06 5.89712E-04-2.84949E-04
 -1       131 3.42000E-09 2.30748E-04-1.69681E-04
 -1       153 7.84293E-05 1.17603E-03-6.39671E-05
 -1       154-6.57931E-08 1.04445E-03 4.49602E-08
 -1       155-7.82764E-05 1.18214E-03 6.38816E-05
 -1       156-6.60557E-08 8.64863E-04 4.36807E-08
 -1       157-1.57512E-05 4.88408E-04-1.14335E-04
 -1       158 2.79886E-07 4.98313E-04-1.71363E-08
 -1       159 1.57252E-05 4.87358E-04 1.14313E-04
 -1       160-2.35833E-08 1.89385E-04-2.95976E-08
 -1       182 6.72427E-07 9.09494E-04 1.35560E-04
 -1       183-8.22361E-08 1.08822E-03 1.42340E-04
 -1       184-7.88432E-07 9.09465E-04 1.35576E-04
 -1       185-1.11601E-08 8.00747E-04 2.56454E-04
 -1       186-1.73180E-06 5.89712E-04 2.84962E-04
 -1       187-1.90020E-08 5.46434E-04 2.90494E-04
 -1       188 1.71155E-06 5.89702E-04 2.84967E-04
 -1       189 9.19422E-10 2.30810E-04 1.69726E-04
 -1       211 7.82137E-05 1.18208E-03 6.39378E-05
 -1       212 1.68802E-08 1.04448E-03-1.82528E-08
 -1       213-7.84163E-05 1.17605E-03-6.39635E-05
 -1       214 6.00827E-08 8.64832E-04 5.43460E-08
 -1       215-1.57382E-05 4.87366E-04 1.14311E-04
 -1       216-3.06370E-07 4.98329E-04-8.51894E-10
 -1       217 1.57414E-05 4.88395E-04-1.14322E-04
 -1       218 2.05312E-08 1.89380E-04-2.81911E-08
 -1       250-1.63237E-08 1.17673E-03-6.33638E-05
 -1       251-2.97897E-06 7.43515E-04-4.72490E-08
 -1       252 2.62827E-08 9.47323E-04 1.24888E-08
 -1       253 2.97351E-06 7.43494E-04 1.89741E-08
 -1       254-3.33227E-08 1.17091E-03 6.35120E-05
 -1       255-1.75804E-08 8.45831E-04-2.75318E-08
 -1       256-5.89562E-09 4.80936E-04-1.27533E-04
 -1       257 5.22967E-07 5.62253E-04 5.98862E-09
 -1       258 3.96001E-09 4.99145E-04-8.50280E-10
 -1       259-5.29340E-07 5.62247E-04-1.03825E-08
 -1       260-6.71217E-09 4.81980E-04 1.27518E-04
 -1       261-5.17884E-09 2.14330E-04 3.06061E-09
 -3
    1PSTEP                         5           5           1          
  100CL  105 2.50000E-02          81                     1    5           1
 -4  DISP        4    1
 -5  D1          1    2    1    0
 -5  D2          1    2    2    0
 -5  D3          1    2    3    0
 -5  ALL         1    2    0    0    1ALL
 -1         5 0.00000E+00 0.00000E+00 0.00000E+00
 -1         6 0.00000E+00 0.00000E+00 0.00000E+00
 -1         7 0.00000E+00 0.00000E+00 0.00000E+00
 -1         8 0.00000E+00 0.00000E+00 0.00000E+00
 -1        21 0.00000E+00 0.00000E+00 0.00000E+00
 -1        22 0.00000E+00 0.00000E+00 0.00000E+00
 -1        23 0.00000E+00 0.00000E+00 0.00000E+00
 -1        24 0.00000E+00 0.00000E+00 0.00000E+00
 -1        25 0.00000E+00 0.00000E+00 0.00000E+00
 -1        26 0.00000E+00 0.00000E+00 0.00000E+00
 -1        27 0.00000E+00 0.00000E+00 0.00000E+00
 -1        28 0.00000E+00 0.00000E+00 0.00000E+00
 -1        29 0.00000E+00 0.00000E+00 0.00000E+00
 -1        30 0.00000E+00 0.00000E+00 0.00000E+00
 -1        31 0.00000E+00 0.00000E+00 0.00000E+00
 -1        32 0.00000E+00 0.00000E+00 0.00000E+00
 -1        44 7.03484E-05-7.48216E-04 1.08470E-04
 -1        45 1.55863E-05-5.81050E-04 1.74892E-04
 -1        46-1.86277E-05-4.22773E-04 2.00194E-04
 -1        47 2.52193E-05-1.71376E-04 1.31859E-04
 -1        48-2.52215E-05-1.71376E-04 1.31871E-04
 -1        49 1.86448E-05-4.22765E-04 2.00199E-04
 -1        50-1.56281E-05-5.81029E-04 1.74872E-04
 -1        51-7.03751E-05-7.48120E-04 1.08451E-04
 -1        74-7.44428E-05-7.44406E-04-1.08471E-04
 -1        75-1.79282E-05-5.78706E-04-1.74916E-04
 -1        76 2.05917E-05-4.24747E-04-2.00163E-04
 -1        77-2.44957E-05-1.72076E-04-1.31849E-04
 -1        89 7.44795E-05-7.44418E-04-1.08486E-04
 -1        90 1.79113E-05-5.78730E-04-1.74941E-04
 -1        91-2.05644E-05-4.24724E-04-2.00168E-04
 -1        92 2.45007E-05-1.72071E-04-1.31846E-04
 -1        98 0.00000E+00 0.00000E+00 0.00000E+00
 -1        99 0.00000E+00 0.00000E+00 0.00000E+00
 -1       100 0.00000E+00 0.00000E+00 0.00000E+00
 -1       101 0.00000E+00 0.00000E+00 0.00000E+00
 -1       102 0.00000E+00 0.00000E+00 0.00000E+00
 -1       124-4.96930E-06-6.85337E-04 1.02265E-04
 -1       125-5.48678E-08-8.22334E-04 1.07369E-04
 -1       126 4.91568E-06-6.85350E-04 1.02238E-04
 -1       127 6.71732E-09-6.04229E-04 1.93173E-04
 -1       128 1.92867E-06-4.45140E-04 2.14967E-04
 -1       129-1.59934E-08-4.12621E-04 2.19074E-04
 -1       130-1.94005E-06-4.45151E-04 2.14974E-04
 -1       131 1.32249E-09-1.74073E-04 1.27997E-04
 -1       153-5.87505E-05-8.87914E-04 4.82493E-05
 -1       154-8.72280E-07-7.88464E-04 6.19482E-09
 -1       155 6.02965E-05-8.91518E-04-4.81739E-05
 -1       156 7.11198E-08-6.52266E-04 2.54329E-07
 -1       157 1.18143E-05-3.68474E-04 8.61957E-05
 -1       158-1.58793E-07-3.76350E-04 9.26899E-08
 -1       159-1.21642E-05-3.68131E-04-8.62286E-05
 -1       160 2.63026E-08-1.42963E-04 3.87224E-08
 -1       182-1.55943E-06-6.86668E-04-1.02225E-04
 -1       183-1.68130E-08-8.20750E-04-1.07346E-04
 -1       184 1.57220E-06-6.86638E-04-1.02209E-04
 -1       185 1.47919E-08-6.04619E-04-1.93609E-04
 -1       186 1.59795E-06-4.44822E-04-2.14944E-04
 -1       187-8.33993E-09-4.12112E-04-2.19276E-04
 -1       188-1.59617E-06-4.44818E-04-2.14953E-04
 -1       189 4.15183E-09-1.74071E-04-1.28066E-04
 -1       211-6.02297E-05-8.91552E-04-4.82256E-05
 -1       212 9.09685E-07-7.88477E-04-5.74699E-08
 -1       213 5.87735E-05-8.87851E-04 4.82609E-05
 -1       214-5.53014E-08-6.52239E-04 2.47629E-07
 -1       215 1.21695E-05-3.68117E-04-8.62286E-05
 -1       216 1.52568E-07-3.76356E-04 9.49080E-08
 -1       217-1.18122E-05-3.68477E-04 8.61891E-05
 -1       218-2.61696E-08-1.42958E-04 3.49009E-08
 -1       250-8.11646E-09-8.87755E-04 4.78276E-05
 -1       251 2.44973E-06-5.61284E-04-6.10330E-08
 -1       252 5.01545E-08-7.13634E-04 3.91161E-08
 -1       253-2.39158E-06-5.61274E-04-2.53131E-08
 -1       254 1.11780E-08-8.82890E-04-4.78004E-05
 -1       255 2.44805E-09-6.38122E-04-2.66353E-09
 -1       256-3.40811E-09-3.62894E-04 9.62378E-05
 -1       257-3.68509E-07-4.24258E-04 3.01049E-09
 -1       258 6.36209E-09-3.76659E-04 5.03067E-10
 -1       259 3.74729E-07-4.24257E-04 6.63417E-10
 -1       260 3.18324E-10-3.63571E-04-9.62080E-05
 -1       261-3.34243E-09-1.61840E-04-8.80546E-09
 -3
    1PSTEP                         6           6           1          
  100CL  106 3.00000E-02          81                     1    6           1
 -4  DISP        4    1
 -5  D1          1    2    1    0
 -5  D2          1    2    2    0
 -5  D3          1    2    3    0
 -5  ALL         1    2    0    0    1ALL
 -1         5 0.00000E+00 0.00000E+00 0.00000E+00
 -1         6 0.00000E+00 0.00000E+00 0.00000E+00
 -1         7 0.00000E+00 0.00000E+00 0.00000E+00
 -1         8 0.00000E+00 0.00000E+00 0.00000E+00
 -1        21 0.00000E+00 0.00000E+00 0.00000E+00
 -1        22 0.00000E+00 0.00000E+00 0.00000E+00
 -1        23 0.00000E+00 0.00000E+00 0.00000E+00
 -1        24 0.00000E+00 0.00000E+00 0.00000E+00
 -1        25 0.00000E+00 0.00000E+00 0.00000E+00
 -1        26 0.00000E+00 0.00000E+00 0.00000E+00
 -1        27 0.00000E+00 0.00000E+00 0.00000E+00
 -1        28 0.00000E+00 0.00000E+00 0.00000E+00
 -1        29 0.00000E+00 0.00000E+00 0.00000E+00
 -1        30 0.00000E+00 0.00000E+00 0.00000E+00
 -1        31 0.00000E+00 0.00000E+00 0.00000E+00
 -1        32 0.00000E+00 0.00000E+00 0.00000E+00
 -1        44-5.18456E-05 5.41360E-04-7.87640E-05
 -1        45-1.19268E-05 4.20707E-04-1.26890E-04
 -1        46 1.39838E-05 3.07404E-04-1.45339E-04
 -1        47-1.81434E-05 1.24541E-04-9.56783E-05