    1C
    1UUSER                                                              
    1UDATE              17.july.2018                                    
    1UTIME              01:44:11                                        
    1UHOST                                                              
    1UPGM               CalculiX                                        
    1UVERSION           Version 2.13                             
    1UCOMPILETIME       jue jun 14 00:40:39 CEST 2018                    
    1UDIR                                                               
    1UDBN                                                               
    1UMAT    1EL                                                        
    2C                            81                                     1
 -1         5 0.00000E+00 0.00000E+00 8.00000E+00
 -1         6 1.00000E+00 0.00000E+00 8.00000E+00
 -1         7 1.00000E+00 1.00000E+00 8.00000E+00
 -1         8 0.00000E+00 1.00000E+00 8.00000E+00
 -1        21 2.50000E-01 0.00000E+00 8.00000E+00
 -1        22 5.00000E-01 0.00000E+00 8.00000E+00
 -1        23 7.50000E-01 0.00000E+00 8.00000E+00
 -1        24 1.00000E+00 2.50000E-01 8.00000E+00
 -1        25 1.00000E+00 5.00000E-01 8.00000E+00
 -1        26 1.00000E+00 7.50000E-01 8.00000E+00
 -1        27 7.50000E-01 1.00000E+00 8.00000E+00
 -1        28 5.00000E-01 1.00000E+00 8.00000E+00
 -1        29 2.50000E-01 1.00000E+00 8.00000E+00
 -1        30 0.00000E+00 7.50000E-01 8.00000E+00
 -1        31 0.00000E+00 5.00000E-01 8.00000E+00
 -1        32 0.00000E+00 2.50000E-01 8.00000E+00
 -1        44 1.00000E+00 0.00000E+00 6.00000E+00
 -1        45 1.00000E+00 0.00000E+00 6.50000E+00
 -1        46 1.00000E+00 0.00000E+00 7.00000E+00
 -1        47 1.00000E+00 0.00000E+00 7.50000E+00
 -1        48 0.00000E+00 0.00000E+00 7.50000E+00
 -1        49 0.00000E+00 0.00000E+00 7.00000E+00
 -1        50 0.00000E+00 0.00000E+00 6.50000E+00
 -1        51 0.00000E+00 0.00000E+00 6.00000E+00
 -1        74 1.00000E+00 1.00000E+00 6.00000E+00
 -1        75 1.00000E+00 1.00000E+00 6.50000E+00
 -1        76 1.00000E+00 1.00000E+00 7.00000E+00
 -1        77 1.00000E+00 1.00000E+00 7.50000E+00
 -1        89 0.00000E+00 1.00000E+00 6.00000E+00
 -1        90 0.00000E+00 1.00000E+00 6.50000E+00
 -1        91 0.00000E+00 1.00000E+00 7.00000E+00
 -1        92 0.00000E+00 1.00000E+00 7.50000E+00
 -1        98 5.00000E-01 2.50000E-01 8.00000E+00
 -1        99 2.50000E-01 5.00000E-01 8.00000E+00
 -1       100 5.00000E-01 5.00000E-01 8.00000E+00
 -1       101 7.50000E-01 5.00000E-01 8.00000E+00
 -1       102 5.00000E-01 7.50000E-01 8.00000E+00
 -1       124 2.50000E-01 0.00000E+00 6.00000E+00
 -1       125 5.00000E-01 0.00000E+00 6.00000E+00
 -1       126 7.50000E-01 0.00000E+00 6.00000E+00
 -1       127 5.00000E-01 0.00000E+00 6.50000E+00
 -1       128 2.50000E-01 0.00000E+00 7.00000E+00
 -1       129 5.00000E-01 0.00000E+00 7.00000E+00
 -1       130 7.50000E-01 0.00000E+00 7.00000E+00
 -1       131 5.00000E-01 0.00000E+00 7.50000E+00
 -1       153 1.00000E+00 2.50000E-01 6.00000E+00
 -1       154 1.00000E+00 5.00000E-01 6.00000E+00
 -1       155 1.00000E+00 7.50000E-01 6.00000E+00
 -1       156 1.00000E+00 5.00000E-01 6.50000E+00
 -1       157 1.00000E+00 2.50000E-01 7.00000E+00
 -1       158 1.00000E+00 5.00000E-01 7.00000E+00
 -1       159 1.00000E+00 7.50000E-01 7.00000E+00
 -1       160 1.00000E+00 5.00000E-01 7.50000E+00
 -1       182 7.50000E-01 1.00000E+00 6.00000E+00
 -1       183 5.00000E-01 1.00000E+00 6.00000E+00
 -1       184 2.50000E-01 1.00000E+00 6.00000E+00
 -1       185 5.00000E-01 1.00000E+00 6.50000E+00
 -1       186 7.50000E-01 1.00000E+00 7.00000E+00
 -1       187 5.00000E-01 1.00000E+00 7.00000E+00
 -1       188 2.50000E-01 1.00000E+00 7.00000E+00
 -1       189 5.00000E-01 1.00000E+00 7.50000E+00
 -1       211 0.00000E+00 7.50000E-01 6.00000E+00
 -1       212 0.00000E+00 5.00000E-01 6.00000E+00
 -1       213 0.00000E+00 2.50000E-01 6.00000E+00
 -1       214 0.00000E+00 5.00000E-01 6.50000E+00
 -1       215 0.00000E+00 7.50000E-01 7.00000E+00
 -1       216 0.00000E+00 5.00000E-01 7.00000E+00
 -1       217 0.00000E+00 2.50000E-01 7.00000E+00
 -1       218 0.00000E+00 5.00000E-01 7.50000E+00
 -1       250 5.00000E-01 2.50000E-01 6.00000E+00
 -1       251 2.50000E-01 5.00000E-01 6.00000E+00
 -1       252 5.00000E-01 5.00000E-01 6.00000E+00
 -1       253 7.50000E-01 5.00000E-01 6.00000E+00
 -1       254 5.00000E-01 7.50000E-01 6.00000E+00
 -1       255 5.00000E-01 5.00000E-01 6.50000E+00
 -1       256 5.00000E-01 2.50000E-01 7.00000E+00
 -1       257 2.50000E-01 5.00000E-01 7.00000E+00
 -1       258 5.00000E-01 5.00000E-01 7.00000E+00
 -1       259 7.50000E-01 5.00000E-01 7.00000E+00
 -1       260 5.00000E-01 7.50000E-01 7.00000E+00
 -1       261 5.00000E-01 5.00000E-01 7.50000E+00
 -3
    3C                             8                                     1
 -1        25    4    0    1
 -2        51       125       252       212        49       129       258       216       124       250
 -2       251       213        50       127       255       214       128       256       257       217
 -1        26    4    0    1
 -2       125        44       154       252       129        46       158       258       126       153
 -2       253       250       127        45       156       255       130       157       259       256
 -1        27    4    0    1
 -2       212       252       183        89       216       258       187        91       251       254
 -2       184       211       214       255       185        90       257       260       188       215
 -1        28    4    0    1
 -2       252       154        74       183       258       158        76       187       253       155
 -2       182       254       255       156        75       185       259       159       186       260
 -1        29    4    0    1
 -2        49       129       258       216         5        22       100        31       128       256
 -2       257       217        48       131       261       218        21        98        99        32
 -1        30    4    0    1
 -2       129        46       158       258        22         6        25       100       130       157
 -2       259       256       131        47       160       261        23        24       101        98
 -1        31    4    0    1
 -2       216       258       187        91        31       100        28         8       257       260
 -2       188       215       218       261       189        92        99       102        29        30
 -1        32    4    0    1
 -2       258       158        76       187       100        25         7        28       259       159
 -2       186       260       261       160        77       189       101        26        27       102
 -3
    1PSTEP                         1           1           1          
  100CL  101 5.00000E-03          81                     1    1           1
 -4  DISP        4    1
 -5  D1          1    2    1    0
 -5  D2          1    2    2    0
 -5  D3          1    2    3    0
 -5  ALL         1    2    0    0    1ALL
 -1         5 0.00000E+00 0.00000E+00 0.00000E+00
 -1         6 0.00000E+00 0.00000E+00 0.00000E+00
 -1         7 0.00000E+00 0.00000E+00 0.00000E+00
 -1         8 0.00000E+00 0.00000E+00 0.00000E+00
 -1        21 0.00000E+00 0.00000E+00 0.00000E+00
 -1        22 0.00000E+00 0.00000E+00 0.00000E+00
 -1        23 0.00000E+00 0.00000E+00 0.00000E+00
 -1        24 0.00000E+00 0.00000E+00 0.00000E+00
 -1        25 0.00000E+00 0.00000E+00 0.00000E+00
 -1        26 0.00000E+00 0.00000E+00 0.00000E+00
 -1        27 0.00000E+00 0.00000E+00 0.00000E+00
 -1        28 0.00000E+00 0.00000E+00 0.00000E+00
 -1        29 0.00000E+00 0.00000E+00 0.00000E+00
 -1        30 0.00000E+00 0.00000E+00 0.00000E+00
 -1        31 0.00000E+00 0.00000E+00 0.00000E+00
 -1        32 0.00000E+00 0.00000E+00 0.00000E+00
 -1        44-5.96710E-05-3.46513E-03 4.48429E-04
 -1        45 5.66697E-05-2.56208E-03 7.85510E-04
 -1        46-4.78190E-05-1.79581E-03 9.49149E-04
 -1        47 1.30906E-04-6.75127E-04 5.43238E-04
 -1        48-1.30930E-04-6.75143E-04 5.43280E-04
 -1        49 4.77157E-05-1.79583E-03 9.49240E-04
 -1        50-5.68751E-05-2.56209E-03 7.85665E-04
 -1        51 5.92354E-05-3.46520E-03 4.48680E-04
 -1        74 3.17375E-04-4.41018E-03-4.94735E-04
 -1        75 1.90418E-04-2.97125E-03-7.85058E-04
 -1        76-1.10046E-04-1.59815E-03-9.49825E-04
 -1        77-2.07665E-04-5.27095E-04-5.58229E-04
 -1        89-3.17809E-04-4.41012E-03-4.94486E-04
 -1        90-1.90624E-04-2.97124E-03-7.84903E-04
 -1        91 1.09943E-04-1.59813E-03-9.49734E-04
 -1        92 2.07641E-04-5.27079E-04-5.58187E-04
 -1        98 0.00000E+00 0.00000E+00 0.00000E+00
 -1        99 0.00000E+00 0.00000E+00 0.00000E+00
 -1       100 0.00000E+00 0.00000E+00 0.00000E+00
 -1       101 0.00000E+00 0.00000E+00 0.00000E+00
 -1       102 0.00000E+00 0.00000E+00 0.00000E+00
 -1       124 1.48875E-04-2.96651E-03 4.29870E-04
 -1       125-1.80805E-07-3.58885E-03 4.48605E-04
 -1       126-1.49266E-04-2.96648E-03 4.29772E-04
 -1       127-1.12780E-07-2.56256E-03 9.03322E-04
 -1       128-9.09414E-06-1.95265E-03 9.48141E-04
 -1       129-3.81273E-08-1.81442E-03 9.41526E-04
 -1       130 9.00568E-06-1.95264E-03 9.48089E-04
 -1       131-7.85791E-09-7.36417E-04 5.56337E-04
 -1       153 6.92800E-05-3.63707E-03 1.91267E-04
 -1       154-1.20381E-04-2.50529E-03-2.10933E-05
 -1       155-6.47586E-05-3.88942E-03-2.38094E-04
 -1       156-1.20157E-04-2.78899E-03-6.45957E-05
 -1       157-2.04800E-05-1.50925E-03 3.92247E-04
 -1       158 8.82810E-05-1.56746E-03-2.94040E-05
 -1       159 4.65674E-05-1.47601E-03-4.11054E-04
 -1       160 3.97445E-05-6.56464E-04 4.88507E-06
 -1       182 1.14057E-04-2.56368E-03-4.71248E-04
 -1       183-1.80824E-07-4.35349E-03-4.76600E-04
 -1       184-1.14448E-04-2.56366E-03-4.71152E-04
 -1       185-1.12803E-07-2.83294E-03-8.73825E-04
 -1       186-4.39655E-05-2.16197E-03-9.82630E-04
 -1       187-3.82078E-08-1.83192E-03-9.63774E-04
 -1       188 4.38772E-05-2.16196E-03-9.82579E-04
 -1       189-7.84614E-09-7.20010E-04-5.64477E-04
 -1       211 6.42783E-05-3.88939E-03-2.37861E-04
 -1       212 1.19874E-04-2.50529E-03-2.08362E-05
 -1       213-6.97607E-05-3.63710E-03 1.91501E-04
 -1       214 1.19959E-04-2.78899E-03-6.44371E-05
 -1       215-4.66809E-05-1.47600E-03-4.10958E-04
 -1       216-8.84041E-05-1.56746E-03-2.93132E-05
 -1       217 2.03663E-05-1.50926E-03 3.92343E-04
 -1       218-3.97736E-05-6.56464E-04 4.91995E-06
 -1       250-1.82659E-07-4.08020E-03 1.74343E-04
 -1       251 2.99725E-05-2.57225E-03-1.04616E-05
 -1       252-1.81983E-07-3.12248E-03-1.58359E-05
 -1       253-3.03991E-05-2.57225E-03-1.05261E-05
 -1       254-1.82706E-07-4.41111E-03-2.54198E-04
 -1       255-1.22576E-07-2.59980E-03-3.20085E-05
 -1       256-3.79139E-08-1.60727E-03 3.95722E-04
 -1       257-4.11177E-05-1.74940E-03-1.19801E-05
 -1       258-3.59540E-08-1.78977E-03-1.45617E-05
 -1       259 4.10217E-05-1.74940E-03-1.20392E-05
 -1       260-3.79570E-08-1.62243E-03-4.18331E-04
 -1       261-1.25261E-08-7.17005E-04-1.97625E-06
 -3
    1PSTEP                         2           2           1          
  100CL  102 1.00000E-02          81                     1    2           1
 -4  DISP        4    1
 -5  D1          1    2    1    0
 -5  D2          1    2    2    0
 -5  D3          1    2    3    0
 -5  ALL         1    2    0    0    1ALL
 -1         5 0.00000E+00 0.00000E+00 0.00000E+00
 -1         6 0.00000E+00 0.00000E+00 0.00000E+00
 -1         7 0.00000E+00 0.00000E+00 0.00000E+00
 -1         8 0.00000E+00 0.00000E+00 0.00000E+00
 -1        21 0.00000E+00 0.00000E+00 0.00000E+00
 -1        22 0.00000E+00 0.00000E+00 0.00000E+00
 -1        23 0.00000E+00 0.00000E+00 0.00000E+00
 -1        24 0.00000E+00 0.00000E+00 0.00000E+00
 -1        25 0.00000E+00 0.00000E+00 0.00000E+00
 -1        26 0.00000E+00 0.00000E+00 0.00000E+00
 -1        27 0.00000E+00 0.00000E+00 0.00000E+00
 -1        28 0.00000E+00 0.00000E+00 0.00000E+00
 -1        29 0.00000E+00 0.00000E+00 0.00000E+00
 -1        30 0.00000E+00 0.00000E+00 0.00000E+00
 -1        31 0.00000E+00 0.00000E+00 0.00000E+00
 -1        32 0.00000E+00 0.00000E+00 0.00000E+00
 -1        44-1.45528E-04 1.61250E-03-2.33710E-04
 -1        45-3.28577E-05 1.25048E-03-3.76975E-04
 -1        46 4.03937E-05 9.13114E-04-4.32379E-04
 -1        47-5.45865E-05 3.69148E-04-2.83864E-04
 -1        48 5.46204E-05 3.69184E-04-2.83943E-04
 -1        49-4.03570E-05 9.13105E-04-4.32485E-04
 -1        50 3.31852E-05 1.25052E-03-3.77073E-04
 -1        51 1.45775E-04 1.61232E-03-2.33673E-04
 -1        74 1.50369E-04 1.60967E-03 2.34322E-04
 -1        75 3.52979E-05 1.24854E-03 3.77419E-04
 -1        76-4.13324E-05 9.14366E-04 4.32501E-04
 -1        77 5.40370E-05 3.69603E-04 2.83943E-04
 -1        89-1.49854E-04 1.60964E-03 2.34018E-04
 -1        90-3.49929E-05 1.24860E-03 3.77261E-04
 -1        91 4.14428E-05 9.14331E-04 4.32404E-04
 -1        92-5.40021E-05 3.69588E-04 2.83890E-04
 -1        98 0.00000E+00 0.00000E+00 0.00000E+00
 -1        99 0.00000E+00 0.00000E+00 0.00000E+00
 -1       100 0.00000E+00 0.00000E+00 0.00000E+00
 -1       101 0.00000E+00 0.00000E+00 0.00000E+00
 -1       102 0.00000E+00 0.00000E+00 0.00000E+00
 -1       124 2.10815E-06 1.47767E-03-2.20382E-04
 -1       125 2.87423E-07 1.76886E-03-2.31114E-04
 -1       126-1.71180E-06 1.47771E-03-2.20294E-04
 -1       127 9.40357E-08 1.30104E-03-4.16684E-04
 -1       128-2.81643E-06 9.59413E-04-4.63354E-04
 -1       129 8.05661E-08 8.89028E-04-4.71783E-04
 -1       130 2.91856E-06 9.59427E-04-4.63327E-04
 -1       131 2.98102E-09 3.75426E-04-2.75995E-04
 -1       153 1.22072E-04 1.91702E-03-1.03715E-04
 -1       154 1.12806E-06 1.68841E-03 1.70735E-07
 -1       155-1.23279E-04 1.91560E-03 1.04081E-04
 -1       156 2.49725E-07 1.40556E-03-3.85863E-08
 -1       157-2.41031E-05 7.92275E-04-1.85943E-04
 -1       158-2.00201E-07 8.09794E-04 4.74161E-08
 -1       159 2.44314E-05 7.92908E-04 1.86194E-04
 -1       160-4.96545E-08 3.08590E-04-8.87978E-09
 -1       182 4.48378E-06 1.47872E-03 2.20533E-04
 -1       183 2.68140E-07 1.76874E-03 2.31512E-04
 -1       184-3.98400E-06 1.47866E-03 2.20371E-04
 -1       185 1.23085E-07 1.30193E-03 4.17342E-04
 -1       186-3.30886E-06 9.59811E-04 4.63520E-04
 -1       187 7.43844E-08 8.89701E-04 4.72098E-04
 -1       188 3.44168E-06 9.59805E-04 4.63477E-04
 -1       189 1.13894E-08 3.75538E-04 2.76060E-04
 -1       211 1.23727E-04 1.91566E-03 1.03878E-04
 -1       212-6.79104E-07 1.68849E-03-2.80815E-08
 -1       213-1.21751E-04 1.91694E-03-1.03836E-04
 -1       214-1.72657E-08 1.40556E-03-2.01083E-07
 -1       215-2.42946E-05 7.92900E-04 1.86076E-04
 -1       216 3.48190E-07 8.09828E-04-6.22506E-08
 -1       217 2.42031E-05 7.92295E-04-1.86041E-04
 -1       218 8.99261E-08 3.08591E-04-5.44042E-08
 -1       250 2.23202E-07 1.90772E-03-1.03073E-04
 -1       251 4.44233E-07 1.20961E-03 1.62641E-07
 -1       252 1.45243E-07 1.54196E-03 4.94112E-08
 -1       253-6.59851E-08 1.20957E-03 2.43022E-07
 -1       254 2.19804E-07 1.90895E-03 1.03420E-04
 -1       255 1.27166E-07 1.37418E-03 9.06021E-08
 -1       256 6.54056E-08 7.83743E-04-2.07132E-04
 -1       257 7.07234E-08 9.13430E-04 1.46677E-08
 -1       258 4.98655E-08 8.12682E-04 7.30002E-08
 -1       259 4.71746E-08 9.13411E-04 7.36925E-08
 -1       260 5.98881E-08 7.83785E-04 2.07216E-04
 -1       261 2.08916E-08 3.48439E-04 1.14723E-08
 -3
    1PSTEP                         3           3           1          
  100CL  103 1.50000E-02          81                     1    3           1
 -4  DISP        4    1
 -5  D1          1    2    1    0
 -5  D2          1    2    2    0
 -5  D3          1    2    3    0
 -5  ALL         1    2    0    0    1ALL
 -1         5 0.00000E+00 0.00000E+00 0.00000E+00
 -1         6 0.00000E+00 0.00000E+00 0.00000E+00
 -1         7 0.00000E+00 0.00000E+00 0.00000E+00
 -1         8 0.00000E+00 0.00000E+00 0.00000E+00
 -1        21 0.00000E+00 0.00000E+00 0.00000E+00
 -1        22 0.00000E+00 0.00000E+00 0.00000E+00
 -1        23 0.00000E+00 0.00000E+00 0.00000E+00
 -1        24 0.00000E+00 0.00000E+00 0.00000E+00
 -1        25 0.00000E+00 0.00000E+00 0.00000E+00
 -1        26 0.00000E+00 0.00000E+00 0.00000E+00
 -1        27 0.00000E+00 0.00000E+00 0.00000E+00
 -1        28 0.00000E+00 0.00000E+00 0.00000E+00
 -1        29 0.00000E+00 0.00000E+00 0.00000E+00
 -1        30 0.00000E+00 0.00000E+00 0.00000E+00
 -1        31 0.00000E+00 0.00000E+00 0.00000E+00
 -1        32 0.00000E+00 0.00000E+00 0.00000E+00
 -1        44 1.18680E-04-1.27667E-03 1.85263E-04
 -1        45 2.64806E-05-9.91199E-04 2.98558E-04
 -1        46-3.21319E-05-7.22758E-04 3.42036E-04
 -1        47 4.31157E-05-2.92610E-04 2.25045E-04
 -1        48-4.31186E-05-2.92611E-04 2.25049E-04
 -1        49 3.21138E-05-7.22767E-04 3.42050E-04
 -1        50-2.64968E-05-9.91200E-04 2.98576E-04
 -1        51-1.18725E-04-1.27671E-03 1.85302E-04
 -1        74-1.23792E-04-1.27130E-03-1.85306E-04
 -1        75-2.94693E-05-9.88113E-04-2.98634E-04
 -1        76 3.39760E-05-7.24731E-04-3.42073E-04
 -1        77-4.22573E-05-2.93513E-04-2.25048E-04
 -1        89 1.23763E-04-1.27129E-03-1.85297E-04
 -1        90 2.94397E-05-9.88106E-04-2.98621E-04
 -1        91-3.39888E-05-7.24732E-04-3.42051E-04
 -1        92 4.22524E-05-2.93512E-04-2.25038E-04
 -1        98 0.00000E+00 0.00000E+00 0.00000E+00
 -1        99 0.00000E+00 0.00000E+00 0.00000E+00
 -1       100 0.00000E+00 0.00000E+00 0.00000E+00
 -1       101 0.00000E+00 0.00000E+00 0.00000E+00
 -1       102 0.00000E+00 0.00000E+00 0.00000E+00
 -1       124-4.23641E-06-1.17052E-03 1.74584E-04
 -1       125-7.64125E-09-1.40257E-03 1.83235E-04
 -1       126 4.20380E-06-1.17050E-03 1.74569E-04
 -1       127-1.40052E-08-1.03121E-03 3.30010E-04
 -1       128 2.60139E-06-7.59913E-04 3.67056E-04
 -1       129-2.51359E-09-7.04249E-04 3.73947E-04
 -1       130-2.61192E-06-7.59907E-04 3.67048E-04
 -1       131-1.54994E-09-2.97344E-04 2.18587E-04
 -1       153-9.92328E-05-1.51866E-03 8.23022E-05
 -1       154-8.93512E-07-1.34397E-03-3.87903E-08
 -1       155 1.00916E-04-1.51858E-03-8.23326E-05
 -1       156 1.70384E-07-1.11411E-03 3.05686E-07
 -1       157 1.98506E-05-6.28149E-04 1.47241E-04
 -1       158-8.45379E-08-6.41712E-04 1.19053E-07
 -1       159-2.02432E-05-6.28480E-04-1.47299E-04
 -1       160-2.57445E-08-2.44039E-04 2.33355E-08
 -1       182-4.27942E-06-1.17248E-03-1.74605E-04
 -1       183-2.15073E-08-1.40022E-03-1.83228E-04
 -1       184 4.23970E-06-1.17248E-03-1.74581E-04
 -1       185-1.15857E-08-1.03138E-03-3.30627E-04
 -1       186 2.90122E-06-7.59493E-04-3.67032E-04
 -1       187-7.09418E-09-7.04273E-04-3.74202E-04
 -1       188-2.91360E-06-7.59492E-04-3.67025E-04
 -1       189-1.63917E-09-2.97384E-04-2.18652E-04
 -1       211-1.00966E-04-1.51856E-03-8.22941E-05
 -1       212 8.37777E-07-1.34397E-03-2.50844E-08
 -1       213 9.91768E-05-1.51869E-03 8.23263E-05
 -1       214-1.99113E-07-1.11412E-03 3.20309E-07
 -1       215 2.02317E-05-6.28481E-04-1.47289E-04
 -1       216 7.21771E-08-6.41710E-04 1.30444E-07
 -1       217-1.98648E-05-6.28151E-04 1.47253E-04
 -1       218 2.11374E-08-2.44041E-04 2.95895E-08
 -1       250-2.12978E-08-1.51295E-03 8.17264E-05
 -1       251 7.48272E-07-9.57644E-04-4.79801E-08
 -1       252-3.64373E-08-1.22120E-03-5.88196E-09
 -1       253-8.10015E-07-9.57647E-04-4.49185E-08
 -1       254-2.83796E-08-1.51110E-03-8.16976E-05
 -1       255-1.53286E-08-1.08943E-03-9.99120E-09
 -1       256-5.10781E-09-6.20265E-04 1.64229E-04
 -1       257-5.62085E-08-7.24204E-04-8.40807E-09
 -1       258-6.90200E-09-6.43122E-04-3.47471E-09
 -1       259 4.27962E-08-7.24205E-04-1.61346E-08
 -1       260-7.38227E-09-6.20448E-04-1.64215E-04
 -1       261-8.60561E-10-2.76041E-04 1.12041E-09
 -3
    1PSTEP                         4           4           1          
  100CL  104 2.00000E-02          81                     1    4           1
 -4  DISP        4    1
 -5  D1          1    2    1    0
 -5  D2          1    2    2    0
 -5  D3          1    2    3    0
 -5  ALL         1    2    0    0    1ALL
 -1         5 0.00000E+00 0.00000E+00 0.00000E+00
 -1         6 0.00000E+00 0.00000E+00 0.00000E+00
 -1         7 0.00000E+00 0.00000E+00 0.00000E+00
 -1         8 0.00000E+00 0.00000E+00 0.00000E+00
 -1        21 0.00000E+00 0.00000E+00 0.00000E+00
 -1        22 0.00000E+00 0.00000E+00 0.00000E+00
 -1        23 0.00000E+00 0.00000E+00 0.00000E+00
 -1        24 0.00000E+00 0.00000E+00 0.00000E+00
 -1        25 0.00000E+00 0.00000E+00 0.00000E+00
 -1        26 0.00000E+00 0.00000E+00 0.00000E+00
 -1        27 0.00000E+00 0.00000E+00 0.00000E+00
 -1        28 0.00000E+00 0.00000E+00 0.00000E+00
 -1        29 0.00000E+00 0.00000E+00 0.00000E+00
 -1        30 0.00000E+00 0.00000E+00 0.00000E+00
 -1        31 0.00000E+00 0.00000E+00 0.00000E+00
 -1        32 0.00000E+00 0.00000E+00 0.00000E+00
 -1        44-9.14683E-05 9.90026E-04-1.43709E-04
 -1        45-2.05349E-05 7.68522E-04-2.31684E-04
 -1        46 2.50716E-05 5.61340E-04-2.65431E-04
 -1        47-3.34159E-05 2.27199E-04-1.74574E-04
 -1        48 3.34244E-05 2.27206E-04-1.74596E-04
 -1        49-2.50721E-05 5.61344E-04-2.65457E-04
 -1        50 2.06181E-05 7.68520E-04-2.31698E-04
 -1        51 9.15066E-05 9.89994E-04-1.43705E-04
 -1        74 9.43791E-05 9.86840E-04 1.43703E-04
 -1        75 2.22819E-05 7.66735E-04 2.31711E-04
 -1        76-2.59297E-05 5.62293E-04 2.65469E-04
 -1        77 3.29468E-05 2.27715E-04 1.74591E-04
 -1        89-9.43167E-05 9.86872E-04 1.43706E-04
 -1        90-2.22000E-05 7.66752E-04 2.31709E-04
 -1        91 2.59420E-05 5.62285E-04 2.65438E-04
 -1        92-3.29381E-05 2.27712E-04 1.74572E-04
 -1        98 0.00000E+00 0.00000E+00 0.00000E+00
 -1        99 0.00000E+00 0.00000E+00 0.00000E+00
 -1       100 0.00000E+00 0.00000E+00 0.00000E+00
 -1       101 0.00000E+00 0.00000E+00 0.00000E+00
 -1       102 0.00000E+00 0.00000E+00 0.00000E+00
 -1       124 2.20643E-06 9.08460E-04-1.35400E-04
 -1       125 7.75716E-08 1.08711E-03-1.42149E-04
 -1       126-2.11670E-06 9.08450E-04-1.35357E-04
 -1       127 1.15363E-08 7.99851E-04-2.55924E-04
 -1       128-1.89082E-06 5.89610E-04-2.84736E-04
 -1       129 2.56178E-08 5.46496E-04-2.90034E-04
 -1       130 1.91803E-06 5.89613E-04-2.84733E-04
 -1       131 1.47239E-10 2.30849E-04-1.69633E-04
 -1       153 7.63713E-05 1.17881E-03-6.38027E-05
 -1       154 4.80786E-07 1.04144E-03 1.10152E-09
 -1       155-7.72889E-05 1.17734E-03 6.38216E-05
 -1       156-7.92217E-08 8.64138E-04-1.75247E-07
 -1       157-1.51991E-05 4.87376E-04-1.14236E-04
 -1       158 7.04273E-09 4.98044E-04-5.56438E-08
 -1       159 1.54282E-05 4.87799E-04 1.14280E-04
 -1       160 2.85364E-08 1.89533E-04-2.23845E-09
 -1       182 3.56103E-06 9.09585E-04 1.35386E-04
 -1       183 6.18256E-08 1.08564E-03 1.42107E-04
 -1       184-3.47380E-06 9.09580E-04 1.35347E-04
 -1       185 1.97751E-08 7.99877E-04 2.56260E-04
 -1       186-2.28066E-06 5.89351E-04 2.84710E-04
 -1       187 2.27271E-08 5.46625E-04 2.90155E-04
 -1       188 2.31115E-06 5.89351E-04 2.84705E-04
 -1       189 2.03382E-09 2.30867E-04 1.69653E-04
 -1       211 7.73297E-05 1.17738E-03 6.38016E-05
 -1       212-4.28839E-07 1.04147E-03 2.13955E-08
 -1       213-7.63376E-05 1.17880E-03-6.38179E-05
 -1       214 1.29576E-07 8.64138E-04-1.97593E-07
 -1       215-1.54041E-05 4.87796E-04 1.14259E-04
 -1       216 2.21255E-08 4.98051E-04-8.09120E-08
 -1       217 1.52158E-05 4.87384E-04-1.14255E-04
 -1       218-1.80737E-08 1.89533E-04-1.40795E-08
 -1       250 5.50253E-08 1.17207E-03-6.34122E-05
 -1       251 2.60261E-07 7.43076E-04 3.96654E-08
 -1       252 2.18693E-08 9.47359E-04 3.41701E-09
 -1       253-2.06545E-07 7.43059E-04 3.21916E-08
 -1       254 4.52795E-08 1.17225E-03 6.33274E-05
 -1       255 2.36505E-08 8.45220E-04 7.39395E-09
 -1       256 1.83790E-08 4.81611E-04-1.27377E-04
 -1       257-8.14953E-08 5.61828E-04-3.86905E-09
 -1       258 1.27176E-08 4.99060E-04-3.56201E-09
 -1       259 1.06704E-07 5.61825E-04 8.23098E-09
 -1       260 1.71952E-08 4.81481E-04 1.27366E-04
 -1       261 5.47601E-09 2.14197E-04-2.61233E-09
 -3
    1PSTEP                         5           5           1          
  100CL  105 2.50000E-02          81                     1    5           1
 -4  DISP        4    1
 -5  D1          1    2    1    0
 -5  D2          1    2    2    0
 -5  D3          1    2    3    0
 -5  ALL         1    2    0    0    1ALL
 -1         5 0.00000E+00 0.00000E+00 0.00000E+00
 -1         6 0.00000E+00 0.00000E+00 0.00000E+00
 -1         7 0.00000E+00 0.00000E+00 0.00000E+00
 -1         8 0.00000E+00 0.00000E+00 0.00000E+00
 -1        21 0.00000E+00 0.00000E+00 0.00000E+00
 -1        22 0.00000E+00 0.00000E+00 0.00000E+00
 -1        23 0.00000E+00 0.00000E+00 0.00000E+00
 -1        24 0.00000E+00 0.00000E+00 0.00000E+00
 -1        25 0.00000E+00 0.00000E+00 0.00000E+00
 -1        26 0.00000E+00 0.00000E+00 0.00000E+00
 -1        27 0.00000E+00 0.00000E+00 0.00000E+00
 -1        28 0.00000E+00 0.00000E+00 0.00000E+00
 -1        29 0.00000E+00 0.00000E+00 0.00000E+00
 -1        30 0.00000E+00 0.00000E+00 0.00000E+00
 -1        31 0.00000E+00 0.00000E+00 0.00000E+00
 -1        32 0.00000E+00 0.00000E+00 0.00000E+00
 -1        44 6.71958E-05-7.49040E-04 1.08428E-04
 -1        45 1.45363E-05-5.81018E-04 1.74776E-04
 -1        46-1.84203E-05-4.23152E-04 2.00339E-04
 -1        47 2.55077E-05-1.71178E-04 1.31752E-04
 -1        48-2.55071E-05-1.71181E-04 1.31761E-04
 -1        49 1.84271E-05-4.23149E-04 2.00350E-04
 -1        50-1.45481E-05-5.81032E-04 1.74791E-04
 -1        51-6.72218E-05-7.49045E-04 1.08455E-04
 -1        74-7.24176E-05-7.43214E-04-1.08433E-04
 -1        75-1.76057E-05-5.77762E-04-1.74840E-04
 -1        76 1.99808E-05-4.24848E-04-2.00348E-04
 -1        77-2.46379E-05-1.72113E-04-1.31738E-04
 -1        89 7.24029E-05-7.43205E-04-1.08432E-04
 -1        90 1.75990E-05-5.77779E-04-1.74845E-04
 -1        91-1.99875E-05-4.24840E-04-2.00348E-04
 -1        92 2.46374E-05-1.72114E-04-1.31741E-04
 -1        98 0.00000E+00 0.00000E+00 0.00000E+00
 -1        99 0.00000E+00 0.00000E+00 0.00000E+00
 -1       100 0.00000E+00 0.00000E+00 0.00000E+00
 -1       101 0.00000E+00 0.00000E+00 0.00000E+00
 -1       102 0.00000E+00 0.00000E+00 0.00000E+00
 -1       124-6.70886E-07-6.84891E-04 1.02166E-04
 -1       125-2.66726E-08-8.21262E-04 1.07273E-04
 -1       126 6.34608E-07-6.84884E-04 1.02129E-04
 -1       127 3.81345E-09-6.03626E-04 1.92953E-04
 -1       128 1.18367E-06-4.45175E-04 2.14882E-04
 -1       129-2.86711E-09-4.12373E-04 2.18768E-04
 -1       130-1.18357E-06-4.45177E-04 2.14880E-04
 -1       131 1.69144E-09-1.74243E-04 1.28020E-04
 -1       153-5.68962E-05-8.90250E-04 4.81395E-05
 -1       154-8.20460E-07-7.85242E-04-3.16941E-08
 -1       155 5.86023E-05-8.87366E-04-4.81098E-05
 -1       156 2.06254E-07-6.52140E-04 3.31358E-07
 -1       157 1.12997E-05-3.67581E-04 8.62110E-05
 -1       158 8.54722E-09-3.75868E-04 1.30800E-07
 -1       159-1.16748E-05-3.68375E-04-8.62553E-05
 -1       160-4.79351E-08-1.43110E-04 1.79439E-08
 -1       182-3.33977E-06-6.86969E-04-1.02084E-04
 -1       183 6.10077E-09-8.18543E-04-1.07202E-04
 -1       184 3.33738E-06-6.86967E-04-1.02101E-04
 -1       185-1.10390E-08-6.03648E-04-1.93556E-04
 -1       186 1.93964E-06-4.44696E-04-2.14839E-04
 -1       187 1.38242E-09-4.12650E-04-2.19002E-04
 -1       188-1.94151E-06-4.44691E-04-2.14837E-04
 -1       189-5.64095E-10-1.74278E-04-1.28060E-04
 -1       211-5.86326E-05-8.87386E-04-4.81183E-05
 -1       212 7.61525E-07-7.85292E-04-3.27967E-09
 -1       213 5.68469E-05-8.90274E-04 4.81989E-05
 -1       214-2.01117E-07-6.52128E-04 3.43410E-07
 -1       215 1.16640E-05-3.68379E-04-8.62502E-05
 -1       216-2.11649E-08-3.75883E-04 1.32923E-07
 -1       217-1.13014E-05-3.67587E-04 8.62115E-05
 -1       218 4.89596E-08-1.43110E-04 1.56685E-08
 -1       250-1.43058E-08-8.84370E-04 4.78480E-05
 -1       251-5.48800E-07-5.60884E-04-6.09573E-08
 -1       252 1.96118E-09-7.15036E-04 2.48170E-08
 -1       253 5.22832E-07-5.60853E-04-4.60883E-08
 -1       254 5.66899E-09-8.84946E-04-4.77748E-05
 -1       255-9.13651E-09-6.37746E-04 1.21437E-08
 -1       256 1.25737E-09-3.63654E-04 9.61214E-05
 -1       257 1.90048E-07-4.23994E-04 1.35417E-09
 -1       258 4.57444E-09-3.76798E-04 1.88818E-09
 -1       259-1.91526E-07-4.23988E-04-6.36135E-09
 -1       260 2.46371E-09-3.63380E-04-9.60844E-05
 -1       261-7.48106E-10-1.61693E-04-4.08793E-10
 -3
    1PSTEP                         6           6           1          
  100CL  106 3.00000E-02          81                     1    6           1
 -4  DISP        4    1
 -5  D1          1    2    1    0
 -5  D2          1    2    2    0
 -5  D3          1    2    3    0
 -5  ALL         1    2    0    0    1ALL
 -1         5 0.00000E+00 0.00000E+00 0.00000E+00
 -1         6 0.00000E+00 0.00000E+00 0.00000E+00
 -1         7 0.00000E+00 0.00000E+00 0.00000E+00
 -1         8 0.00000E+00 0.00000E+00 0.00000E+00
 -1        21 0.00000E+00 0.00000E+00 0.00000E+00
 -1        22 0.00000E+00 0.00000E+00 0.00000E+00
 -1        23 0.00000E+00 0.00000E+00 0.00000E+00
 -1        24 0.00000E+00 0.00000E+00 0.00000E+00
 -1        25 0.00000E+00 0.00000E+00 0.00000E+00
 -1        26 0.00000E+00 0.00000E+00 0.00000E+00
 -1        27 0.00000E+00 0.00000E+00 0.00000E+00
 -1        28 0.00000E+00 0.00000E+00 0.00000E+00
 -1        29 0.00000E+00 0.00000E+00 0.00000E+00
 -1        30 0.00000E+00 0.00000E+00 0.00000E+00
 -1        31 0.00000E+00 0.00000E+00 0.00000E+00
 -1        32 0.00000E+00 0.00000E+00 0.00000E+00
 -1        44-5.06666E-05 5.42013E-04-7.87092E-05
 -1        45-1.14641E-05 4.20888E-04-1.26849E-04
 -1        46 1.37858E-05 3.07274E-04-1.45358E-04
 -1        47-1.82648E-05 1.24391E-04-9.56043E-05