    1C
    1UUSER                                                              
    1UDATE              15.july.2018                                    
    1UTIME              19:43:57                                        
    1UHOST                                                              
    1UPGM               CalculiX                                        
    1UVERSION           Version 2.13                             
    1UCOMPILETIME       jue jun 14 00:40:39 CEST 2018                    
    1UDIR                                                               
    1UDBN                                                               
    1UMAT    1EL                                                        
    2C                            81                                     1
 -1         5 0.00000E+00 0.00000E+00 8.00000E+00
 -1         6 1.00000E+00 0.00000E+00 8.00000E+00
 -1         7 1.00000E+00 1.00000E+00 8.00000E+00
 -1         8 0.00000E+00 1.00000E+00 8.00000E+00
 -1        21 2.50000E-01 0.00000E+00 8.00000E+00
 -1        22 5.00000E-01 0.00000E+00 8.00000E+00
 -1        23 7.50000E-01 0.00000E+00 8.00000E+00
 -1        24 1.00000E+00 2.50000E-01 8.00000E+00
 -1        25 1.00000E+00 5.00000E-01 8.00000E+00
 -1        26 1.00000E+00 7.50000E-01 8.00000E+00
 -1        27 7.50000E-01 1.00000E+00 8.00000E+00
 -1        28 5.00000E-01 1.00000E+00 8.00000E+00
 -1        29 2.50000E-01 1.00000E+00 8.00000E+00
 -1        30 0.00000E+00 7.50000E-01 8.00000E+00
 -1        31 0.00000E+00 5.00000E-01 8.00000E+00
 -1        32 0.00000E+00 2.50000E-01 8.00000E+00
 -1        44 1.00000E+00 0.00000E+00 6.00000E+00
 -1        45 1.00000E+00 0.00000E+00 6.50000E+00
 -1        46 1.00000E+00 0.00000E+00 7.00000E+00
 -1        47 1.00000E+00 0.00000E+00 7.50000E+00
 -1        48 0.00000E+00 0.00000E+00 7.50000E+00
 -1        49 0.00000E+00 0.00000E+00 7.00000E+00
 -1        50 0.00000E+00 0.00000E+00 6.50000E+00
 -1        51 0.00000E+00 0.00000E+00 6.00000E+00
 -1        74 1.00000E+00 1.00000E+00 6.00000E+00
 -1        75 1.00000E+00 1.00000E+00 6.50000E+00
 -1        76 1.00000E+00 1.00000E+00 7.00000E+00
 -1        77 1.00000E+00 1.00000E+00 7.50000E+00
 -1        89 0.00000E+00 1.00000E+00 6.00000E+00
 -1        90 0.00000E+00 1.00000E+00 6.50000E+00
 -1        91 0.00000E+00 1.00000E+00 7.00000E+00
 -1        92 0.00000E+00 1.00000E+00 7.50000E+00
 -1        98 5.00000E-01 2.50000E-01 8.00000E+00
 -1        99 2.50000E-01 5.00000E-01 8.00000E+00
 -1       100 5.00000E-01 5.00000E-01 8.00000E+00
 -1       101 7.50000E-01 5.00000E-01 8.00000E+00
 -1       102 5.00000E-01 7.50000E-01 8.00000E+00
 -1       124 2.50000E-01 0.00000E+00 6.00000E+00
 -1       125 5.00000E-01 0.00000E+00 6.00000E+00
 -1       126 7.50000E-01 0.00000E+00 6.00000E+00
 -1       127 5.00000E-01 0.00000E+00 6.50000E+00
 -1       128 2.50000E-01 0.00000E+00 7.00000E+00
 -1       129 5.00000E-01 0.00000E+00 7.00000E+00
 -1       130 7.50000E-01 0.00000E+00 7.00000E+00
 -1       131 5.00000E-01 0.00000E+00 7.50000E+00
 -1       153 1.00000E+00 2.50000E-01 6.00000E+00
 -1       154 1.00000E+00 5.00000E-01 6.00000E+00
 -1       155 1.00000E+00 7.50000E-01 6.00000E+00
 -1       156 1.00000E+00 5.00000E-01 6.50000E+00
 -1       157 1.00000E+00 2.50000E-01 7.00000E+00
 -1       158 1.00000E+00 5.00000E-01 7.00000E+00
 -1       159 1.00000E+00 7.50000E-01 7.00000E+00
 -1       160 1.00000E+00 5.00000E-01 7.50000E+00
 -1       182 7.50000E-01 1.00000E+00 6.00000E+00
 -1       183 5.00000E-01 1.00000E+00 6.00000E+00
 -1       184 2.50000E-01 1.00000E+00 6.00000E+00
 -1       185 5.00000E-01 1.00000E+00 6.50000E+00
 -1       186 7.50000E-01 1.00000E+00 7.00000E+00
 -1       187 5.00000E-01 1.00000E+00 7.00000E+00
 -1       188 2.50000E-01 1.00000E+00 7.00000E+00
 -1       189 5.00000E-01 1.00000E+00 7.50000E+00
 -1       211 0.00000E+00 7.50000E-01 6.00000E+00
 -1       212 0.00000E+00 5.00000E-01 6.00000E+00
 -1       213 0.00000E+00 2.50000E-01 6.00000E+00
 -1       214 0.00000E+00 5.00000E-01 6.50000E+00
 -1       215 0.00000E+00 7.50000E-01 7.00000E+00
 -1       216 0.00000E+00 5.00000E-01 7.00000E+00
 -1       217 0.00000E+00 2.50000E-01 7.00000E+00
 -1       218 0.00000E+00 5.00000E-01 7.50000E+00
 -1       250 5.00000E-01 2.50000E-01 6.00000E+00
 -1       251 2.50000E-01 5.00000E-01 6.00000E+00
 -1       252 5.00000E-01 5.00000E-01 6.00000E+00
 -1       253 7.50000E-01 5.00000E-01 6.00000E+00
 -1       254 5.00000E-01 7.50000E-01 6.00000E+00
 -1       255 5.00000E-01 5.00000E-01 6.50000E+00
 -1       256 5.00000E-01 2.50000E-01 7.00000E+00
 -1       257 2.50000E-01 5.00000E-01 7.00000E+00
 -1       258 5.00000E-01 5.00000E-01 7.00000E+00
 -1       259 7.50000E-01 5.00000E-01 7.00000E+00
 -1       260 5.00000E-01 7.50000E-01 7.00000E+00
 -1       261 5.00000E-01 5.00000E-01 7.50000E+00
 -3
    3C                             8                                     1
 -1        25    4    0    1
 -2        51       125       252       212        49       129       258       216       124       250
 -2       251       213        50       127       255       214       128       256       257       217
 -1        26    4    0    1
 -2       125        44       154       252       129        46       158       258       126       153
 -2       253       250       127        45       156       255       130       157       259       256
 -1        27    4    0    1
 -2       212       252       183        89       216       258       187        91       251       254
 -2       184       211       214       255       185        90       257       260       188       215
 -1        28    4    0    1
 -2       252       154        74       183       258       158        76       187       253       155
 -2       182       254       255       156        75       185       259       159       186       260
 -1        29    4    0    1
 -2        49       129       258       216         5        22       100        31       128       256
 -2       257       217        48       131       261       218        21        98        99        32
 -1        30    4    0    1
 -2       129        46       158       258        22         6        25       100       130       157
 -2       259       256       131        47       160       261        23        24       101        98
 -1        31    4    0    1
 -2       216       258       187        91        31       100        28         8       257       260
 -2       188       215       218       261       189        92        99       102        29        30
 -1        32    4    0    1
 -2       258       158        76       187       100        25         7        28       259       159
 -2       186       260       261       160        77       189       101        26        27       102
 -3
    1PSTEP                         1           1           1          
  100CL  101 5.00000E-03          81                     1    1           1
 -4  DISP        4    1
 -5  D1          1    2    1    0
 -5  D2          1    2    2    0
 -5  D3          1    2    3    0
 -5  ALL         1    2    0    0    1ALL
 -1         5 0.00000E+00 0.00000E+00 0.00000E+00
 -1         6 0.00000E+00 0.00000E+00 0.00000E+00
 -1         7 0.00000E+00 0.00000E+00 0.00000E+00
 -1         8 0.00000E+00 0.00000E+00 0.00000E+00
 -1        21 0.00000E+00 0.00000E+00 0.00000E+00
 -1        22 0.00000E+00 0.00000E+00 0.00000E+00
 -1        23 0.00000E+00 0.00000E+00 0.00000E+00
 -1        24 0.00000E+00 0.00000E+00 0.00000E+00
 -1        25 0.00000E+00 0.00000E+00 0.00000E+00
 -1        26 0.00000E+00 0.00000E+00 0.00000E+00
 -1        27 0.00000E+00 0.00000E+00 0.00000E+00
 -1        28 0.00000E+00 0.00000E+00 0.00000E+00
 -1        29 0.00000E+00 0.00000E+00 0.00000E+00
 -1        30 0.00000E+00 0.00000E+00 0.00000E+00
 -1        31 0.00000E+00 0.00000E+00 0.00000E+00
 -1        32 0.00000E+00 0.00000E+00 0.00000E+00
 -1        44-6.07126E-05-3.46607E-03 4.48241E-04
 -1        45 5.64420E-05-2.56243E-03 7.85603E-04
 -1        46-4.75466E-05-1.79511E-03 9.49100E-04
 -1        47 1.30957E-04-6.74929E-04 5.43139E-04
 -1        48-1.30978E-04-6.74945E-04 5.43180E-04
 -1        49 4.74484E-05-1.79514E-03 9.49188E-04
 -1        50-5.66416E-05-2.56244E-03 7.85759E-04
 -1        51 6.02822E-05-3.46616E-03 4.48506E-04
 -1        74 3.19742E-04-4.41376E-03-4.94612E-04
 -1        75 1.91677E-04-2.97287E-03-7.85270E-04
 -1        76-1.10821E-04-1.59678E-03-9.49652E-04
 -1        77-2.07984E-04-5.26515E-04-5.58085E-04
 -1        89-3.20172E-04-4.41367E-03-4.94346E-04
 -1        90-1.91876E-04-2.97287E-03-7.85114E-04
 -1        91 1.10722E-04-1.59676E-03-9.49564E-04
 -1        92 2.07963E-04-5.26499E-04-5.58045E-04
 -1        98 0.00000E+00 0.00000E+00 0.00000E+00
 -1        99 0.00000E+00 0.00000E+00 0.00000E+00
 -1       100 0.00000E+00 0.00000E+00 0.00000E+00
 -1       101 0.00000E+00 0.00000E+00 0.00000E+00
 -1       102 0.00000E+00 0.00000E+00 0.00000E+00
 -1       124 1.47731E-04-2.96608E-03 4.29793E-04
 -1       125-1.78316E-07-3.58765E-03 4.48288E-04
 -1       126-1.48117E-04-2.96604E-03 4.29688E-04
 -1       127-1.10167E-07-2.56184E-03 9.02872E-04
 -1       128-8.81505E-06-1.95250E-03 9.48011E-04
 -1       129-3.55087E-08-1.81466E-03 9.41444E-04
 -1       130 8.73181E-06-1.95249E-03 9.47960E-04
 -1       131-6.68964E-09-7.36412E-04 5.56336E-04
 -1       153 6.97218E-05-3.63576E-03 1.91227E-04
 -1       154-1.20435E-04-2.50502E-03-2.12283E-05
 -1       155-6.56502E-05-3.88947E-03-2.37980E-04
 -1       156-1.20378E-04-2.78839E-03-6.47710E-05
 -1       157-2.05226E-05-1.50932E-03 3.92249E-04
 -1       158 8.83917E-05-1.56750E-03-2.94282E-05
 -1       159 4.66922E-05-1.47575E-03-4.11031E-04
 -1       160 3.97987E-05-6.56456E-04 4.89774E-06
 -1       182 1.13560E-04-2.56229E-03-4.71055E-04
 -1       183-1.78049E-07-4.35397E-03-4.76616E-04
 -1       184-1.13945E-04-2.56225E-03-4.70950E-04
 -1       185-1.10183E-07-2.83253E-03-8.73289E-04
 -1       186-4.39255E-05-2.16205E-03-9.82519E-04
 -1       187-3.55315E-08-1.83182E-03-9.63558E-04
 -1       188 4.38423E-05-2.16204E-03-9.82469E-04
 -1       189-6.69949E-09-7.19919E-04-5.64420E-04
 -1       211 6.51475E-05-3.88943E-03-2.37732E-04
 -1       212 1.19882E-04-2.50502E-03-2.09380E-05
 -1       213-7.02244E-05-3.63580E-03 1.91476E-04
 -1       214 1.20200E-04-2.78839E-03-6.46058E-05
 -1       215-4.68066E-05-1.47574E-03-4.10937E-04
 -1       216-8.85223E-05-1.56750E-03-2.93420E-05
 -1       217 2.04082E-05-1.50933E-03 3.92343E-04
 -1       218-3.98242E-05-6.56456E-04 4.92605E-06
 -1       250-1.75065E-07-4.08037E-03 1.74065E-04
 -1       251 3.03123E-05-2.57221E-03-1.06129E-05
 -1       252-1.69283E-07-3.12104E-03-1.61690E-05
 -1       253-3.07469E-05-2.57221E-03-1.06626E-05
 -1       254-1.75023E-07-4.41143E-03-2.54261E-04
 -1       255-1.25927E-07-2.59954E-03-3.20467E-05
 -1       256-3.22369E-08-1.60695E-03 3.95611E-04
 -1       257-4.12407E-05-1.74915E-03-1.19692E-05
 -1       258-2.72841E-08-1.78959E-03-1.45468E-05
 -1       259 4.11495E-05-1.74915E-03-1.20332E-05
 -1       260-3.22299E-08-1.62209E-03-4.18225E-04
 -1       261-1.25094E-08-7.17027E-04-1.98306E-06
 -3
    1PSTEP                         2           2           1          
  100CL  102 1.00000E-02          81                     1    2           1
 -4  DISP        4    1
 -5  D1          1    2    1    0
 -5  D2          1    2    2    0
 -5  D3          1    2    3    0
 -5  ALL         1    2    0    0    1ALL
 -1         5 0.00000E+00 0.00000E+00 0.00000E+00
 -1         6 0.00000E+00 0.00000E+00 0.00000E+00
 -1         7 0.00000E+00 0.00000E+00 0.00000E+00
 -1         8 0.00000E+00 0.00000E+00 0.00000E+00
 -1        21 0.00000E+00 0.00000E+00 0.00000E+00
 -1        22 0.00000E+00 0.00000E+00 0.00000E+00
 -1        23 0.00000E+00 0.00000E+00 0.00000E+00
 -1        24 0.00000E+00 0.00000E+00 0.00000E+00
 -1        25 0.00000E+00 0.00000E+00 0.00000E+00
 -1        26 0.00000E+00 0.00000E+00 0.00000E+00
 -1        27 0.00000E+00 0.00000E+00 0.00000E+00
 -1        28 0.00000E+00 0.00000E+00 0.00000E+00
 -1        29 0.00000E+00 0.00000E+00 0.00000E+00
 -1        30 0.00000E+00 0.00000E+00 0.00000E+00
 -1        31 0.00000E+00 0.00000E+00 0.00000E+00
 -1        32 0.00000E+00 0.00000E+00 0.00000E+00
 -1        44-1.58514E-04 1.60282E-03-2.33932E-04
 -1        45-3.88547E-05 1.24660E-03-3.77179E-04
 -1        46 4.29553E-05 9.14657E-04-4.32163E-04
 -1        47-5.29737E-05 3.70715E-04-2.84060E-04
 -1        48 5.29992E-05 3.70726E-04-2.84093E-04
 -1        49-4.29098E-05 9.14642E-04-4.32210E-04
 -1        50 3.89977E-05 1.24662E-03-3.77250E-04
 -1        51 1.58603E-04 1.60281E-03-2.33944E-04
 -1        74 1.47596E-04 1.61737E-03 2.34204E-04
 -1        75 3.21954E-05 1.25413E-03 3.77289E-04
 -1        76-4.02530E-05 9.11885E-04 4.32207E-04
 -1        77 5.48890E-05 3.68479E-04 2.84151E-04
 -1        89-1.47510E-04 1.61733E-03 2.34187E-04
 -1        90-3.20672E-05 1.25413E-03 3.77237E-04
 -1        91 4.03109E-05 9.11878E-04 4.32155E-04
 -1        92-5.48680E-05 3.68472E-04 2.84125E-04
 -1        98 0.00000E+00 0.00000E+00 0.00000E+00
 -1        99 0.00000E+00 0.00000E+00 0.00000E+00
 -1       100 0.00000E+00 0.00000E+00 0.00000E+00
 -1       101 0.00000E+00 0.00000E+00 0.00000E+00
 -1       102 0.00000E+00 0.00000E+00 0.00000E+00
 -1       124 1.21388E-05 1.48175E-03-2.20584E-04
 -1       125 1.16513E-07 1.76699E-03-2.31302E-04
 -1       126-1.19706E-05 1.48175E-03-2.20537E-04
 -1       127 4.72985E-08 1.30163E-03-4.18123E-04
 -1       128-4.92784E-06 9.58712E-04-4.63533E-04
 -1       129 4.19252E-08 8.90273E-04-4.72718E-04
 -1       130 4.99013E-06 9.58719E-04-4.63519E-04
 -1       131 7.53442E-09 3.75376E-04-2.76051E-04
 -1       153 1.27844E-04 1.90984E-03-1.03949E-04
 -1       154-1.23477E-06 1.69587E-03 1.18413E-07
 -1       155-1.24419E-04 1.92364E-03 1.04164E-04
 -1       156 8.07578E-07 1.40697E-03 8.75868E-07
 -1       157-2.56621E-05 7.94497E-04-1.86079E-04
 -1       158 5.69574E-08 8.09873E-04 3.84479E-07
 -1       159 2.48727E-05 7.91723E-04 1.86167E-04
 -1       160-2.43890E-07 3.08014E-04-2.05354E-09
 -1       182-5.45296E-08 1.47641E-03 2.20810E-04
 -1       183 7.14887E-08 1.77437E-03 2.31465E-04
 -1       184 1.78976E-07 1.47640E-03 2.20758E-04
 -1       185 5.23229E-08 1.30277E-03 4.16803E-04
 -1       186-2.14376E-06 9.60469E-04 4.63784E-04
 -1       187 3.36752E-08 8.89361E-04 4.72433E-04
 -1       188 2.20362E-06 9.60463E-04 4.63768E-04
 -1       189 8.53245E-09 3.75410E-04 2.76091E-04
 -1       211 1.24509E-04 1.92363E-03 1.04157E-04
 -1       212 1.33023E-06 1.69591E-03 7.12132E-08
 -1       213-1.27739E-04 1.90986E-03-1.03980E-04
 -1       214-6.53660E-07 1.40695E-03 8.24410E-07
 -1       215-2.48220E-05 7.91727E-04 1.86110E-04
 -1       216-1.47486E-08 8.09885E-04 3.32891E-07
 -1       217 2.57043E-05 7.94495E-04-1.86128E-04
 -1       218 2.70921E-07 3.08012E-04-3.76948E-08
 -1       250 1.27330E-07 1.91535E-03-1.02970E-04
 -1       251-4.42050E-06 1.20956E-03-5.94273E-08
 -1       252 1.33872E-07 1.54184E-03-3.32694E-08
 -1       253 4.60260E-06 1.20953E-03 3.09073E-08
 -1       254 1.02109E-07 1.90808E-03 1.03452E-04
 -1       255 4.59816E-08 1.37526E-03 1.51513E-07
 -1       256 4.51067E-08 7.82268E-04-2.07288E-04
 -1       257 1.17076E-06 9.14216E-04 2.27574E-08
 -1       258 4.77510E-08 8.12437E-04 7.38119E-08
 -1       259-1.10198E-06 9.14210E-04 3.27998E-08
 -1       260 4.13273E-08 7.84207E-04 2.07435E-04
 -1       261 6.93959E-09 3.48579E-04 1.63205E-08
 -3
    1PSTEP                         3           3           1          
  100CL  103 1.50000E-02          81                     1    3           1
 -4  DISP        4    1
 -5  D1          1    2    1    0
 -5  D2          1    2    2    0
 -5  D3          1    2    3    0
 -5  ALL         1    2    0    0    1ALL
 -1         5 0.00000E+00 0.00000E+00 0.00000E+00
 -1         6 0.00000E+00 0.00000E+00 0.00000E+00
 -1         7 0.00000E+00 0.00000E+00 0.00000E+00
 -1         8 0.00000E+00 0.00000E+00 0.00000E+00
 -1        21 0.00000E+00 0.00000E+00 0.00000E+00
 -1        22 0.00000E+00 0.00000E+00 0.00000E+00
 -1        23 0.00000E+00 0.00000E+00 0.00000E+00
 -1        24 0.00000E+00 0.00000E+00 0.00000E+00
 -1        25 0.00000E+00 0.00000E+00 0.00000E+00
 -1        26 0.00000E+00 0.00000E+00 0.00000E+00
 -1        27 0.00000E+00 0.00000E+00 0.00000E+00
 -1        28 0.00000E+00 0.00000E+00 0.00000E+00
 -1        29 0.00000E+00 0.00000E+00 0.00000E+00
 -1        30 0.00000E+00 0.00000E+00 0.00000E+00
 -1        31 0.00000E+00 0.00000E+00 0.00000E+00
 -1        32 0.00000E+00 0.00000E+00 0.00000E+00
 -1        44 1.25122E-04-1.26862E-03 1.85308E-04
 -1        45 2.97028E-05-9.86764E-04 2.98772E-04
 -1        46-3.42697E-05-7.25319E-04 3.41703E-04
 -1        47 4.20138E-05-2.94011E-04 2.25128E-04
 -1        48-4.20268E-05-2.94008E-04 2.25110E-04
 -1        49 3.41832E-05-7.25305E-04 3.41703E-04
 -1        50-2.96664E-05-9.86812E-04 2.98844E-04
 -1        51-1.25071E-04-1.26882E-03 1.85333E-04
 -1        74-1.25252E-04-1.27148E-03-1.85298E-04
 -1        75-2.92842E-05-9.87825E-04-2.98692E-04
 -1        76 3.40368E-05-7.24788E-04-3.41592E-04
 -1        77-4.20965E-05-2.93657E-04-2.25131E-04
 -1        89 1.25359E-04-1.27132E-03-1.85298E-04
 -1        90 2.92763E-05-9.87773E-04-2.98596E-04
 -1        91-3.41007E-05-7.24830E-04-3.41608E-04
 -1        92 4.20725E-05-2.93657E-04-2.25141E-04
 -1        98 0.00000E+00 0.00000E+00 0.00000E+00
 -1        99 0.00000E+00 0.00000E+00 0.00000E+00
 -1       100 0.00000E+00 0.00000E+00 0.00000E+00
 -1       101 0.00000E+00 0.00000E+00 0.00000E+00
 -1       102 0.00000E+00 0.00000E+00 0.00000E+00
 -1       124-4.64088E-06-1.17289E-03 1.74574E-04
 -1       125 9.71431E-08-1.39863E-03 1.83300E-04
 -1       126 4.72011E-06-1.17289E-03 1.74600E-04
 -1       127-3.77653E-08-1.03125E-03 3.30082E-04
 -1       128 3.01040E-06-7.58999E-04 3.66839E-04
 -1       129 1.38413E-08-7.03920E-04 3.74078E-04
 -1       130-3.02794E-06-7.58987E-04 3.66828E-04
 -1       131-1.28033E-08-2.97304E-04 2.18482E-04
 -1       153-1.01813E-04-1.51961E-03 8.23547E-05
 -1       154-7.86284E-07-1.34663E-03-4.30351E-08
 -1       155 1.02291E-04-1.52107E-03-8.22695E-05
 -1       156-6.16022E-07-1.11242E-03-1.08152E-07
 -1       157 2.03686E-05-6.29237E-04 1.47023E-04
 -1       158 3.53434E-07-6.43170E-04-7.32855E-08
 -1       159-2.04891E-05-6.28987E-04-1.47065E-04
 -1       160 1.48834E-07-2.44175E-04-1.66040E-09
 -1       182-4.60265E-06-1.17148E-03-1.74552E-04
 -1       183 2.44289E-08-1.40097E-03-1.83238E-04
 -1       184 4.63735E-06-1.17148E-03-1.74582E-04
 -1       185-2.92779E-08-1.03225E-03-3.29868E-04
 -1       186 2.89427E-06-7.59323E-04-3.66857E-04
 -1       187-8.86641E-09-7.03206E-04-3.74100E-04
 -1       188-2.92319E-06-7.59328E-04-3.66857E-04
 -1       189-1.24005E-08-2.97040E-04-2.18474E-04
 -1       211-1.02273E-04-1.52090E-03-8.23518E-05
 -1       212 8.42487E-07-1.34658E-03 1.01749E-07
 -1       213 1.01810E-04-1.51975E-03 8.22974E-05
 -1       214 4.85137E-07-1.11243E-03-9.57398E-08
 -1       215 2.04830E-05-6.29016E-04-1.47031E-04
 -1       216-3.26857E-07-6.43163E-04-6.42320E-08
 -1       217-2.03876E-05-6.29215E-04 1.47061E-04
 -1       218-1.68563E-07-2.44179E-04 2.74868E-08
 -1       250-3.06864E-08-1.50621E-03 8.17173E-05
 -1       251 4.64123E-07-9.58032E-04 1.58722E-07
 -1       252-1.90092E-07-1.21654E-03 6.88978E-08
 -1       253-6.09859E-07-9.58059E-04-5.69033E-08
 -1       254-7.31217E-08-1.50648E-03-8.17761E-05
 -1       255 1.82810E-10-1.08965E-03-5.87375E-08
 -1       256-2.40383E-08-6.20268E-04 1.64330E-04
 -1       257-2.19755E-07-7.24095E-04-1.71943E-08
 -1       258-5.54249E-08-6.42241E-04-5.91265E-09
 -1       259 1.70687E-07-7.24097E-04 1.23152E-08
 -1       260-3.45532E-08-6.20116E-04-1.64314E-04
 -1       261 5.11978E-09-2.76114E-04-2.50167E-08
 -3
    1PSTEP                         4           4           1          
  100CL  104 2.00000E-02          81                     1    4           1
 -4  DISP        4    1
 -5  D1          1    2    1    0
 -5  D2          1    2    2    0
 -5  D3          1    2    3    0
 -5  ALL         1    2    0    0    1ALL
 -1         5 0.00000E+00 0.00000E+00 0.00000E+00
 -1         6 0.00000E+00 0.00000E+00 0.00000E+00
 -1         7 0.00000E+00 0.00000E+00 0.00000E+00
 -1         8 0.00000E+00 0.00000E+00 0.00000E+00
 -1        21 0.00000E+00 0.00000E+00 0.00000E+00
 -1        22 0.00000E+00 0.00000E+00 0.00000E+00
 -1        23 0.00000E+00 0.00000E+00 0.00000E+00
 -1        24 0.00000E+00 0.00000E+00 0.00000E+00
 -1        25 0.00000E+00 0.00000E+00 0.00000E+00
 -1        26 0.00000E+00 0.00000E+00 0.00000E+00
 -1        27 0.00000E+00 0.00000E+00 0.00000E+00
 -1        28 0.00000E+00 0.00000E+00 0.00000E+00
 -1        29 0.00000E+00 0.00000E+00 0.00000E+00
 -1        30 0.00000E+00 0.00000E+00 0.00000E+00
 -1        31 0.00000E+00 0.00000E+00 0.00000E+00
 -1        32 0.00000E+00 0.00000E+00 0.00000E+00
 -1        44-9.62965E-05 9.86365E-04-1.43939E-04
 -1        45-2.27939E-05 7.66822E-04-2.31875E-04
 -1        46 2.61950E-05 5.62720E-04-2.65526E-04
 -1        47-3.28059E-05 2.27980E-04-1.74763E-04
 -1        48 3.28018E-05 2.27974E-04-1.74760E-04
 -1        49-2.61872E-05 5.62726E-04-2.65531E-04
 -1        50 2.27709E-05 7.66802E-04-2.31851E-04
 -1        51 9.63033E-05 9.86393E-04-1.43951E-04
 -1        74 9.43939E-05 9.88162E-04 1.43979E-04
 -1        75 2.17233E-05 7.67897E-04 2.31862E-04
 -1        76-2.58717E-05 5.62362E-04 2.65507E-04
 -1        77 3.30968E-05 2.27686E-04 1.74760E-04
 -1        89-9.45727E-05 9.88033E-04 1.43977E-04
 -1        90-2.17150E-05 7.67909E-04 2.31851E-04
 -1        91 2.58288E-05 5.62355E-04 2.65534E-04
 -1        92-3.30967E-05 2.27681E-04 1.74762E-04
 -1        98 0.00000E+00 0.00000E+00 0.00000E+00
 -1        99 0.00000E+00 0.00000E+00 0.00000E+00
 -1       100 0.00000E+00 0.00000E+00 0.00000E+00
 -1       101 0.00000E+00 0.00000E+00 0.00000E+00
 -1       102 0.00000E+00 0.00000E+00 0.00000E+00
 -1       124 4.35994E-06 9.10525E-04-1.35662E-04
 -1       125-3.69436E-08 1.08686E-03-1.42258E-04
 -1       126-4.39142E-06 9.10525E-04-1.35639E-04
 -1       127-1.72752E-10 8.00722E-04-2.56634E-04
 -1       128-2.40196E-06 5.89547E-04-2.84947E-04
 -1       129-1.06648E-08 5.46777E-04-2.90528E-04
 -1       130 2.39483E-06 5.89541E-04-2.84949E-04
 -1       131 7.11677E-10 2.30859E-04-1.69708E-04
 -1       153 7.86170E-05 1.17848E-03-6.39179E-05
 -1       154-3.80972E-07 1.04462E-03-4.90514E-08
 -1       155-7.80001E-05 1.18077E-03 6.38752E-05
 -1       156 8.45136E-09 8.64937E-04 1.23878E-07
 -1       157-1.57413E-05 4.88210E-04-1.14324E-04
 -1       158 9.42433E-08 4.98341E-04 3.90655E-08
 -1       159 1.55881E-05 4.87719E-04 1.14303E-04
 -1       160-1.29226E-08 1.89410E-04-6.00710E-09
 -1       182 1.96887E-06 9.09865E-04 1.35624E-04
 -1       183 1.71838E-08 1.08752E-03 1.42283E-04
 -1       184-2.03564E-06 9.09785E-04 1.35578E-04
 -1       185-3.22790E-08 8.00647E-04 2.56407E-04
 -1       186-1.90107E-06 5.89677E-04 2.84967E-04
 -1       187 1.36563E-08 5.46623E-04 2.90453E-04
 -1       188 1.89248E-06 5.89676E-04 2.84990E-04
 -1       189-4.70142E-09 2.30891E-04 1.69711E-04
 -1       211 7.79280E-05 1.18068E-03 6.39498E-05
 -1       212 4.13530E-07 1.04455E-03-8.51146E-08
 -1       213-7.85937E-05 1.17846E-03-6.39645E-05
 -1       214-4.90093E-08 8.64917E-04 1.24064E-07
 -1       215-1.56076E-05 4.87713E-04 1.14302E-04
 -1       216-8.69293E-08 4.98337E-04 5.24030E-08
 -1       217 1.57476E-05 4.88211E-04-1.14317E-04
 -1       218 7.73845E-09 1.89409E-04 7.30659E-09
 -1       250-3.55858E-08 1.17350E-03-6.34420E-05
 -1       251-8.67452E-07 7.43302E-04-1.79700E-08
 -1       252-2.63066E-08 9.47932E-04-3.11220E-08
 -1       253 8.55043E-07 7.43337E-04-4.24735E-08
 -1       254 1.71511E-09 1.17179E-03 6.35414E-05
 -1       255-1.66765E-09 8.46094E-04-1.97213E-08
 -1       256-1.16127E-08 4.81432E-04-1.27550E-04
 -1       257 1.85542E-07 5.62314E-04-4.65502E-09
 -1       258-1.32203E-08 4.98988E-04 1.07322E-08
 -1       259-1.94963E-07 5.62317E-04-1.62446E-09
 -1       260-1.03543E-09 4.81807E-04 1.27549E-04
 -1       261 2.68442E-10 2.14233E-04 7.43639E-09
 -3
    1PSTEP                         5           5           1          
  100CL  105 2.50000E-02          81                     1    5           1
 -4  DISP        4    1
 -5  D1          1    2    1    0
 -5  D2          1    2    2    0
 -5  D3          1    2    3    0
 -5  ALL         1    2    0    0    1ALL
 -1         5 0.00000E+00 0.00000E+00 0.00000E+00
 -1         6 0.00000E+00 0.00000E+00 0.00000E+00
 -1         7 0.00000E+00 0.00000E+00 0.00000E+00
 -1         8 0.00000E+00 0.00000E+00 0.00000E+00
 -1        21 0.00000E+00 0.00000E+00 0.00000E+00
 -1        22 0.00000E+00 0.00000E+00 0.00000E+00
 -1        23 0.00000E+00 0.00000E+00 0.00000E+00
 -1        24 0.00000E+00 0.00000E+00 0.00000E+00
 -1        25 0.00000E+00 0.00000E+00 0.00000E+00
 -1        26 0.00000E+00 0.00000E+00 0.00000E+00
 -1        27 0.00000E+00 0.00000E+00 0.00000E+00
 -1        28 0.00000E+00 0.00000E+00 0.00000E+00
 -1        29 0.00000E+00 0.00000E+00 0.00000E+00
 -1        30 0.00000E+00 0.00000E+00 0.00000E+00
 -1        31 0.00000E+00 0.00000E+00 0.00000E+00
 -1        32 0.00000E+00 0.00000E+00 0.00000E+00
 -1        44 6.94810E-05-7.47959E-04 1.08638E-04
 -1        45 1.57579E-05-5.80566E-04 1.75062E-04
 -1        46-1.90500E-05-4.23949E-04 2.00554E-04
 -1        47 2.52403E-05-1.71547E-04 1.31872E-04
 -1        48-2.52302E-05-1.71542E-04 1.31864E-04
 -1        49 1.90723E-05-4.23950E-04 2.00544E-04
 -1        50-1.57172E-05-5.80553E-04 1.75023E-04
 -1        51-6.94949E-05-7.47886E-04 1.08614E-04
 -1        74-6.95262E-05-7.48153E-04-1.08667E-04
 -1        75-1.56008E-05-5.80649E-04-1.75089E-04
 -1        76 1.88191E-05-4.23733E-04-2.00535E-04
 -1        77-2.52614E-05-1.71496E-04-1.31852E-04
 -1        89 6.94955E-05-7.48162E-04-1.08617E-04
 -1        90 1.56577E-05-5.80655E-04-1.75103E-04
 -1        91-1.87939E-05-4.23721E-04-2.00553E-04
 -1        92 2.52754E-05-1.71497E-04-1.31863E-04
 -1        98 0.00000E+00 0.00000E+00 0.00000E+00
 -1        99 0.00000E+00 0.00000E+00 0.00000E+00
 -1       100 0.00000E+00 0.00000E+00 0.00000E+00
 -1       101 0.00000E+00 0.00000E+00 0.00000E+00
 -1       102 0.00000E+00 0.00000E+00 0.00000E+00
 -1       124-1.44288E-06-6.86440E-04 1.02315E-04
 -1       125 2.29916E-08-8.21462E-04 1.07366E-04
 -1       126 1.46856E-06-6.86467E-04 1.02348E-04
 -1       127 1.23044E-08-6.04339E-04 1.93596E-04
 -1       128 1.41545E-06-4.45288E-04 2.15156E-04
 -1       129 1.53106E-08-4.12711E-04 2.19214E-04
 -1       130-1.39173E-06-4.45290E-04 2.15157E-04
 -1       131 3.83229E-09-1.74298E-04 1.28144E-04
 -1       153-5.80774E-05-8.91068E-04 4.82142E-05
 -1       154 1.19080E-08-7.87751E-04 3.83424E-09
 -1       155 5.80340E-05-8.89837E-04-4.82322E-05
 -1       156-2.04335E-08-6.53391E-04-4.53449E-09
 -1       157 1.16657E-05-3.67855E-04 8.63481E-05
 -1       158 9.83594E-08-3.75705E-04 9.17573E-10
 -1       159-1.16412E-05-3.68058E-04-8.63329E-05
 -1       160 8.75461E-09-1.42926E-04 3.82205E-09
 -1       182-2.88701E-06-6.86359E-04-1.02317E-04
 -1       183 2.24316E-08-8.21609E-04-1.07408E-04
 -1       184 2.90760E-06-6.86349E-04-1.02325E-04
 -1       185 2.04427E-08-6.04373E-04-1.93545E-04
 -1       186 1.62982E-06-4.45321E-04-2.15168E-04
 -1       187 1.79143E-08-4.12784E-04-2.19208E-04
 -1       188-1.60232E-06-4.45318E-04-2.15169E-04
 -1       189 5.70773E-09-1.74276E-04-1.28135E-04
 -1       211-5.80446E-05-8.89844E-04-4.82024E-05
 -1       212-1.59674E-08-7.87727E-04-1.76732E-08
 -1       213 5.80800E-05-8.91008E-04 4.82365E-05
 -1       214 9.31780E-08-6.53385E-04-1.70767E-08
 -1       215 1.16563E-05-3.68047E-04-8.63542E-05
 -1       216-9.12495E-08-3.75701E-04-1.63319E-08
 -1       217-1.16535E-05-3.67855E-04 8.63238E-05
 -1       218 4.37242E-09-1.42925E-04-1.30610E-08
 -1       250 4.84523E-08-8.86462E-04 4.78876E-05
 -1       251-6.19140E-07-5.60951E-04-3.93912E-08
 -1       252 7.27158E-08-7.17217E-04-1.01196E-08
 -1       253 6.88227E-07-5.60967E-04 2.54586E-08
 -1       254 4.49861E-08-8.87772E-04-4.79467E-05
 -1       255 1.15972E-08-6.38716E-04-5.22218E-09
 -1       256 2.10522E-08-3.63615E-04 9.62421E-05
 -1       257 1.13930E-07-4.24468E-04 3.23842E-09
 -1       258 2.68235E-08-3.76807E-04 2.64666E-09
 -1       259-8.24370E-08-4.24470E-04-8.29411E-10
 -1       260 2.31408E-08-3.63376E-04-9.62329E-05
 -1       261 1.87514E-09-1.61644E-04-5.22799E-09
 -3
    1PSTEP                         6           6           1          
  100CL  106 3.00000E-02          81                     1    6           1
 -4  DISP        4    1
 -5  D1          1    2    1    0
 -5  D2          1    2    2    0
 -5  D3          1    2    3    0
 -5  ALL         1    2    0    0    1ALL
 -1         5 0.00000E+00 0.00000E+00 0.00000E+00
 -1         6 0.00000E+00 0.00000E+00 0.00000E+00
 -1         7 0.00000E+00 0.00000E+00 0.00000E+00
 -1         8 0.00000E+00 0.00000E+00 0.00000E+00
 -1        21 0.00000E+00 0.00000E+00 0.00000E+00
 -1        22 0.00000E+00 0.00000E+00 0.00000E+00
 -1        23 0.00000E+00 0.00000E+00 0.00000E+00
 -1        24 0.00000E+00 0.00000E+00 0.00000E+00
 -1        25 0.00000E+00 0.00000E+00 0.00000E+00
 -1        26 0.00000E+00 0.00000E+00 0.00000E+00
 -1        27 0.00000E+00 0.00000E+00 0.00000E+00
 -1        28 0.00000E+00 0.00000E+00 0.00000E+00
 -1        29 0.00000E+00 0.00000E+00 0.00000E+00
 -1        30 0.00000E+00 0.00000E+00 0.00000E+00
 -1        31 0.00000E+00 0.00000E+00 0.00000E+00
 -1        32 0.00000E+00 0.00000E+00 0.00000E+00
 -1        44-5.12722E-05 5.41180E-04-7.87638E-05
 -1        45-1.17871E-05 4.20346E-04-1.26919E-04
 -1        46 1.40514E-05 3.07763E-04-1.45381E-04
 -1        47-1.81515E-05 1.24576E-04-9.56289E-05