    1C
    1UUSER                                                              
    1UDATE              15.july.2018                                    
    1UTIME              20:01:02                                        
    1UHOST                                                              
    1UPGM               CalculiX                                        
    1UVERSION           Version 2.13                             
    1UCOMPILETIME       jue jun 14 00:40:39 CEST 2018                    
    1UDIR                                                               
    1UDBN                                                               
    1UMAT    1EL                                                        
    2C                            81                                     1
 -1         5 0.00000E+00 0.00000E+00 8.00000E+00
 -1         6 1.00000E+00 0.00000E+00 8.00000E+00
 -1         7 1.00000E+00 1.00000E+00 8.00000E+00
 -1         8 0.00000E+00 1.00000E+00 8.00000E+00
 -1        21 2.50000E-01 0.00000E+00 8.00000E+00
 -1        22 5.00000E-01 0.00000E+00 8.00000E+00
 -1        23 7.50000E-01 0.00000E+00 8.00000E+00
 -1        24 1.00000E+00 2.50000E-01 8.00000E+00
 -1        25 1.00000E+00 5.00000E-01 8.00000E+00
 -1        26 1.00000E+00 7.50000E-01 8.00000E+00
 -1        27 7.50000E-01 1.00000E+00 8.00000E+00
 -1        28 5.00000E-01 1.00000E+00 8.00000E+00
 -1        29 2.50000E-01 1.00000E+00 8.00000E+00
 -1        30 0.00000E+00 7.50000E-01 8.00000E+00
 -1        31 0.00000E+00 5.00000E-01 8.00000E+00
 -1        32 0.00000E+00 2.50000E-01 8.00000E+00
 -1        44 1.00000E+00 0.00000E+00 6.00000E+00
 -1        45 1.00000E+00 0.00000E+00 6.50000E+00
 -1        46 1.00000E+00 0.00000E+00 7.00000E+00
 -1        47 1.00000E+00 0.00000E+00 7.50000E+00
 -1        48 0.00000E+00 0.00000E+00 7.50000E+00
 -1        49 0.00000E+00 0.00000E+00 7.00000E+00
 -1        50 0.00000E+00 0.00000E+00 6.50000E+00
 -1        51 0.00000E+00 0.00000E+00 6.00000E+00
 -1        74 1.00000E+00 1.00000E+00 6.00000E+00
 -1        75 1.00000E+00 1.00000E+00 6.50000E+00
 -1        76 1.00000E+00 1.00000E+00 7.00000E+00
 -1        77 1.00000E+00 1.00000E+00 7.50000E+00
 -1        89 0.00000E+00 1.00000E+00 6.00000E+00
 -1        90 0.00000E+00 1.00000E+00 6.50000E+00
 -1        91 0.00000E+00 1.00000E+00 7.00000E+00
 -1        92 0.00000E+00 1.00000E+00 7.50000E+00
 -1        98 5.00000E-01 2.50000E-01 8.00000E+00
 -1        99 2.50000E-01 5.00000E-01 8.00000E+00
 -1       100 5.00000E-01 5.00000E-01 8.00000E+00
 -1       101 7.50000E-01 5.00000E-01 8.00000E+00
 -1       102 5.00000E-01 7.50000E-01 8.00000E+00
 -1       124 2.50000E-01 0.00000E+00 6.00000E+00
 -1       125 5.00000E-01 0.00000E+00 6.00000E+00
 -1       126 7.50000E-01 0.00000E+00 6.00000E+00
 -1       127 5.00000E-01 0.00000E+00 6.50000E+00
 -1       128 2.50000E-01 0.00000E+00 7.00000E+00
 -1       129 5.00000E-01 0.00000E+00 7.00000E+00
 -1       130 7.50000E-01 0.00000E+00 7.00000E+00
 -1       131 5.00000E-01 0.00000E+00 7.50000E+00
 -1       153 1.00000E+00 2.50000E-01 6.00000E+00
 -1       154 1.00000E+00 5.00000E-01 6.00000E+00
 -1       155 1.00000E+00 7.50000E-01 6.00000E+00
 -1       156 1.00000E+00 5.00000E-01 6.50000E+00
 -1       157 1.00000E+00 2.50000E-01 7.00000E+00
 -1       158 1.00000E+00 5.00000E-01 7.00000E+00
 -1       159 1.00000E+00 7.50000E-01 7.00000E+00
 -1       160 1.00000E+00 5.00000E-01 7.50000E+00
 -1       182 7.50000E-01 1.00000E+00 6.00000E+00
 -1       183 5.00000E-01 1.00000E+00 6.00000E+00
 -1       184 2.50000E-01 1.00000E+00 6.00000E+00
 -1       185 5.00000E-01 1.00000E+00 6.50000E+00
 -1       186 7.50000E-01 1.00000E+00 7.00000E+00
 -1       187 5.00000E-01 1.00000E+00 7.00000E+00
 -1       188 2.50000E-01 1.00000E+00 7.00000E+00
 -1       189 5.00000E-01 1.00000E+00 7.50000E+00
 -1       211 0.00000E+00 7.50000E-01 6.00000E+00
 -1       212 0.00000E+00 5.00000E-01 6.00000E+00
 -1       213 0.00000E+00 2.50000E-01 6.00000E+00
 -1       214 0.00000E+00 5.00000E-01 6.50000E+00
 -1       215 0.00000E+00 7.50000E-01 7.00000E+00
 -1       216 0.00000E+00 5.00000E-01 7.00000E+00
 -1       217 0.00000E+00 2.50000E-01 7.00000E+00
 -1       218 0.00000E+00 5.00000E-01 7.50000E+00
 -1       250 5.00000E-01 2.50000E-01 6.00000E+00
 -1       251 2.50000E-01 5.00000E-01 6.00000E+00
 -1       252 5.00000E-01 5.00000E-01 6.00000E+00
 -1       253 7.50000E-01 5.00000E-01 6.00000E+00
 -1       254 5.00000E-01 7.50000E-01 6.00000E+00
 -1       255 5.00000E-01 5.00000E-01 6.50000E+00
 -1       256 5.00000E-01 2.50000E-01 7.00000E+00
 -1       257 2.50000E-01 5.00000E-01 7.00000E+00
 -1       258 5.00000E-01 5.00000E-01 7.00000E+00
 -1       259 7.50000E-01 5.00000E-01 7.00000E+00
 -1       260 5.00000E-01 7.50000E-01 7.00000E+00
 -1       261 5.00000E-01 5.00000E-01 7.50000E+00
 -3
    3C                             8                                     1
 -1        25    4    0    1
 -2        51       125       252       212        49       129       258       216       124       250
 -2       251       213        50       127       255       214       128       256       257       217
 -1        26    4    0    1
 -2       125        44       154       252       129        46       158       258       126       153
 -2       253       250       127        45       156       255       130       157       259       256
 -1        27    4    0    1
 -2       212       252       183        89       216       258       187        91       251       254
 -2       184       211       214       255       185        90       257       260       188       215
 -1        28    4    0    1
 -2       252       154        74       183       258       158        76       187       253       155
 -2       182       254       255       156        75       185       259       159       186       260
 -1        29    4    0    1
 -2        49       129       258       216         5        22       100        31       128       256
 -2       257       217        48       131       261       218        21        98        99        32
 -1        30    4    0    1
 -2       129        46       158       258        22         6        25       100       130       157
 -2       259       256       131        47       160       261        23        24       101        98
 -1        31    4    0    1
 -2       216       258       187        91        31       100        28         8       257       260
 -2       188       215       218       261       189        92        99       102        29        30
 -1        32    4    0    1
 -2       258       158        76       187       100        25         7        28       259       159
 -2       186       260       261       160        77       189       101        26        27       102
 -3
    1PSTEP                         1           1           1          
  100CL  101 5.00000E-03          81                     1    1           1
 -4  DISP        4    1
 -5  D1          1    2    1    0
 -5  D2          1    2    2    0
 -5  D3          1    2    3    0
 -5  ALL         1    2    0    0    1ALL
 -1         5 0.00000E+00 0.00000E+00 0.00000E+00
 -1         6 0.00000E+00 0.00000E+00 0.00000E+00
 -1         7 0.00000E+00 0.00000E+00 0.00000E+00
 -1         8 0.00000E+00 0.00000E+00 0.00000E+00
 -1        21 0.00000E+00 0.00000E+00 0.00000E+00
 -1        22 0.00000E+00 0.00000E+00 0.00000E+00
 -1        23 0.00000E+00 0.00000E+00 0.00000E+00
 -1        24 0.00000E+00 0.00000E+00 0.00000E+00
 -1        25 0.00000E+00 0.00000E+00 0.00000E+00
 -1        26 0.00000E+00 0.00000E+00 0.00000E+00
 -1        27 0.00000E+00 0.00000E+00 0.00000E+00
 -1        28 0.00000E+00 0.00000E+00 0.00000E+00
 -1        29 0.00000E+00 0.00000E+00 0.00000E+00
 -1        30 0.00000E+00 0.00000E+00 0.00000E+00
 -1        31 0.00000E+00 0.00000E+00 0.00000E+00
 -1        32 0.00000E+00 0.00000E+00 0.00000E+00
 -1        44-6.02052E-05-3.46551E-03 4.48522E-04
 -1        45 5.67872E-05-2.56236E-03 7.85394E-04
 -1        46-4.77399E-05-1.79568E-03 9.49351E-04
 -1        47 1.31013E-04-6.74991E-04 5.43230E-04
 -1        48-1.31014E-04-6.74992E-04 5.43231E-04
 -1        49 4.77382E-05-1.79568E-03 9.49353E-04
 -1        50-5.67900E-05-2.56236E-03 7.85396E-04
 -1        51 6.01992E-05-3.46551E-03 4.48525E-04
 -1        74 3.18971E-04-4.41249E-03-4.94589E-04
 -1        75 1.91104E-04-2.97241E-03-7.84756E-04
 -1        76-1.10357E-04-1.59750E-03-9.49879E-04
 -1        77-2.07908E-04-5.26654E-04-5.58177E-04
 -1        89-3.18977E-04-4.41249E-03-4.94586E-04
 -1        90-1.91107E-04-2.97241E-03-7.84754E-04
 -1        91 1.10355E-04-1.59750E-03-9.49878E-04
 -1        92 2.07907E-04-5.26654E-04-5.58176E-04
 -1        98 0.00000E+00 0.00000E+00 0.00000E+00
 -1        99 0.00000E+00 0.00000E+00 0.00000E+00
 -1       100 0.00000E+00 0.00000E+00 0.00000E+00
 -1       101 0.00000E+00 0.00000E+00 0.00000E+00
 -1       102 0.00000E+00 0.00000E+00 0.00000E+00
 -1       124 1.49707E-04-2.96632E-03 4.29744E-04
 -1       125-2.20190E-09-3.58953E-03 4.48542E-04
 -1       126-1.49711E-04-2.96632E-03 4.29743E-04
 -1       127-1.67898E-09-2.56257E-03 9.03703E-04
 -1       128-9.15815E-06-1.95283E-03 9.48172E-04
 -1       129-4.79845E-10-1.81456E-03 9.41528E-04
 -1       130 9.15676E-06-1.95283E-03 9.48171E-04
 -1       131-1.45667E-10-7.36455E-04 5.56388E-04
 -1       153 7.00171E-05-3.63592E-03 1.91308E-04
 -1       154-1.20336E-04-2.50293E-03-2.09443E-05
 -1       155-6.51001E-05-3.88892E-03-2.37875E-04
 -1       156-1.20309E-04-2.78949E-03-6.46161E-05
 -1       157-2.05766E-05-1.50897E-03 3.92380E-04
 -1       158 8.84969E-05-1.56696E-03-2.93878E-05
 -1       159 4.67952E-05-1.47556E-03-4.11070E-04
 -1       160 3.98236E-05-6.56524E-04 4.90945E-06
 -1       182 1.14929E-04-2.56266E-03-4.71119E-04
 -1       183-2.34758E-09-4.35562E-03-4.76665E-04
 -1       184-1.14934E-04-2.56266E-03-4.71118E-04
 -1       185-1.65737E-09-2.83336E-03-8.74064E-04
 -1       186-4.41237E-05-2.16236E-03-9.82690E-04
 -1       187-5.39490E-10-1.83175E-03-9.63752E-04
 -1       188 4.41223E-05-2.16236E-03-9.82689E-04
 -1       189-1.47430E-10-7.19922E-04-5.64512E-04
 -1       211 6.50939E-05-3.88892E-03-2.37873E-04
 -1       212 1.20332E-04-2.50293E-03-2.09422E-05
 -1       213-7.00228E-05-3.63592E-03 1.91311E-04
 -1       214 1.20306E-04-2.78949E-03-6.46142E-05
 -1       215-4.67966E-05-1.47556E-03-4.11068E-04
 -1       216-8.84986E-05-1.56695E-03-2.93865E-05
 -1       217 2.05751E-05-1.50897E-03 3.92381E-04
 -1       218-3.98243E-05-6.56524E-04 4.91019E-06
 -1       250-2.57595E-09-4.08200E-03 1.74300E-04
 -1       251 3.03172E-05-2.57231E-03-1.04366E-05
 -1       252-3.11550E-09-3.12381E-03-1.58914E-05
 -1       253-3.03228E-05-2.57231E-03-1.04381E-05
 -1       254-2.76866E-09-4.41335E-03-2.54373E-04
 -1       255-1.50889E-09-2.59923E-03-3.20322E-05
 -1       256-7.03094E-10-1.60749E-03 3.95684E-04
 -1       257-4.11507E-05-1.74935E-03-1.20141E-05
 -1       258-8.42904E-10-1.79045E-03-1.45575E-05
 -1       259 4.11492E-05-1.74935E-03-1.20146E-05
 -1       260-7.09075E-10-1.62255E-03-4.18277E-04
 -1       261-1.52577E-10-7.17078E-04-1.98595E-06
 -3
    1PSTEP                         2           2           1          
  100CL  102 1.00000E-02          81                     1    2           1
 -4  DISP        4    1
 -5  D1          1    2    1    0
 -5  D2          1    2    2    0
 -5  D3          1    2    3    0
 -5  ALL         1    2    0    0    1ALL
 -1         5 0.00000E+00 0.00000E+00 0.00000E+00
 -1         6 0.00000E+00 0.00000E+00 0.00000E+00
 -1         7 0.00000E+00 0.00000E+00 0.00000E+00
 -1         8 0.00000E+00 0.00000E+00 0.00000E+00
 -1        21 0.00000E+00 0.00000E+00 0.00000E+00
 -1        22 0.00000E+00 0.00000E+00 0.00000E+00
 -1        23 0.00000E+00 0.00000E+00 0.00000E+00
 -1        24 0.00000E+00 0.00000E+00 0.00000E+00
 -1        25 0.00000E+00 0.00000E+00 0.00000E+00
 -1        26 0.00000E+00 0.00000E+00 0.00000E+00
 -1        27 0.00000E+00 0.00000E+00 0.00000E+00
 -1        28 0.00000E+00 0.00000E+00 0.00000E+00
 -1        29 0.00000E+00 0.00000E+00 0.00000E+00
 -1        30 0.00000E+00 0.00000E+00 0.00000E+00
 -1        31 0.00000E+00 0.00000E+00 0.00000E+00
 -1        32 0.00000E+00 0.00000E+00 0.00000E+00
 -1        44-1.42833E-04 1.61494E-03-2.33848E-04
 -1        45-3.10241E-05 1.25206E-03-3.77106E-04
 -1        46 3.99401E-05 9.13204E-04-4.32475E-04
 -1        47-5.51229E-05 3.68824E-04-2.84002E-04
 -1        48 5.51027E-05 3.68836E-04-2.83941E-04
 -1        49-3.99906E-05 9.13189E-04-4.32362E-04
 -1        50 3.07289E-05 1.25224E-03-3.77192E-04
 -1        51 1.42292E-04 1.61536E-03-2.33800E-04
 -1        74 1.56599E-04 1.60301E-03 2.34231E-04
 -1        75 3.84936E-05 1.24480E-03 3.77312E-04
 -1        76-4.26517E-05 9.15965E-04 4.32388E-04
 -1        77 5.30287E-05 3.70710E-04 2.83973E-04
 -1        89-1.56640E-04 1.60277E-03 2.34147E-04
 -1        90-3.87539E-05 1.24484E-03 3.77281E-04
 -1        91 4.28221E-05 9.16034E-04 4.32488E-04
 -1        92-5.30228E-05 3.70760E-04 2.84074E-04
 -1        98 0.00000E+00 0.00000E+00 0.00000E+00
 -1        99 0.00000E+00 0.00000E+00 0.00000E+00
 -1       100 0.00000E+00 0.00000E+00 0.00000E+00
 -1       101 0.00000E+00 0.00000E+00 0.00000E+00
 -1       102 0.00000E+00 0.00000E+00 0.00000E+00
 -1       124-4.98908E-06 1.47688E-03-2.20310E-04
 -1       125-2.32659E-07 1.76989E-03-2.31276E-04
 -1       126 4.55478E-06 1.47679E-03-2.20421E-04
 -1       127-9.48006E-08 1.30117E-03-4.16193E-04
 -1       128-1.55311E-06 9.59641E-04-4.63411E-04
 -1       129-6.61870E-08 8.88415E-04-4.71648E-04
 -1       130 1.44326E-06 9.59624E-04-4.63435E-04
 -1       131-6.75301E-09 3.75526E-04-2.75974E-04
 -1       153 1.20739E-04 1.92438E-03-1.03925E-04
 -1       154 2.81316E-06 1.68952E-03 3.11928E-07
 -1       155-1.26022E-04 1.90995E-03 1.03968E-04
 -1       156 4.11357E-08 1.40539E-03-6.63819E-07
 -1       157-2.39819E-05 7.91216E-04-1.85928E-04
 -1       158-8.79989E-07 8.10178E-04-2.66136E-07
 -1       159 2.48634E-05 7.94526E-04 1.86126E-04
 -1       160-3.18769E-08 3.08609E-04-4.19904E-08
 -1       182 1.04777E-05 1.48097E-03 2.20487E-04
 -1       183-3.46987E-07 1.76660E-03 2.31394E-04
 -1       184-1.07803E-05 1.48104E-03 2.20663E-04
 -1       185 4.83691E-08 1.30242E-03 4.17992E-04
 -1       186-4.75646E-06 9.59363E-04 4.63469E-04
 -1       187-8.13622E-08 8.90081E-04 4.72434E-04
 -1       188 4.74251E-06 9.59361E-04 4.63473E-04
 -1       189 2.74278E-08 3.75454E-04 2.76057E-04
 -1       211 1.25942E-04 1.90986E-03 1.04132E-04
 -1       212-3.12927E-06 1.68979E-03 1.39243E-07
 -1       213-1.21053E-04 1.92482E-03-1.03740E-04
 -1       214-5.48972E-08 1.40545E-03-5.89330E-07
 -1       215-2.48665E-05 7.94621E-04 1.86138E-04
 -1       216 7.44997E-07 8.10257E-04-1.94268E-07
 -1       217 2.38664E-05 7.91229E-04-1.85890E-04
 -1       218 2.30976E-08 3.08629E-04-3.61877E-08
 -1       250-6.51516E-08 1.90107E-03-1.03196E-04
 -1       251 5.01000E-06 1.20973E-03 1.15596E-07
 -1       252 1.32254E-07 1.54143E-03 7.75002E-08
 -1       253-5.06508E-06 1.20959E-03 3.80477E-07
 -1       254-1.43704E-07 1.91227E-03 1.03352E-04
 -1       255-8.57931E-08 1.37455E-03 1.23789E-07
 -1       256-1.79392E-08 7.84864E-04-2.07228E-04
 -1       257-1.02036E-06 9.13572E-04 1.26156E-07
 -1       258 2.46564E-08 8.12437E-04 8.30738E-08
 -1       259 9.90740E-07 9.13532E-04 4.76123E-08
 -1       260-2.20779E-08 7.82848E-04 2.07295E-04
 -1       261-2.26003E-08 3.48425E-04 1.05180E-09
 -3
    1PSTEP                         3           3           1          
  100CL  103 1.50000E-02          81                     1    3           1
 -4  DISP        4    1
 -5  D1          1    2    1    0
 -5  D2          1    2    2    0
 -5  D3          1    2    3    0
 -5  ALL         1    2    0    0    1ALL
 -1         5 0.00000E+00 0.00000E+00 0.00000E+00
 -1         6 0.00000E+00 0.00000E+00 0.00000E+00
 -1         7 0.00000E+00 0.00000E+00 0.00000E+00
 -1         8 0.00000E+00 0.00000E+00 0.00000E+00
 -1        21 0.00000E+00 0.00000E+00 0.00000E+00
 -1        22 0.00000E+00 0.00000E+00 0.00000E+00
 -1        23 0.00000E+00 0.00000E+00 0.00000E+00
 -1        24 0.00000E+00 0.00000E+00 0.00000E+00
 -1        25 0.00000E+00 0.00000E+00 0.00000E+00
 -1        26 0.00000E+00 0.00000E+00 0.00000E+00
 -1        27 0.00000E+00 0.00000E+00 0.00000E+00
 -1        28 0.00000E+00 0.00000E+00 0.00000E+00
 -1        29 0.00000E+00 0.00000E+00 0.00000E+00
 -1        30 0.00000E+00 0.00000E+00 0.00000E+00
 -1        31 0.00000E+00 0.00000E+00 0.00000E+00
 -1        32 0.00000E+00 0.00000E+00 0.00000E+00
 -1        44 1.18181E-04-1.27766E-03 1.85439E-04
 -1        45 2.61656E-05-9.91985E-04 2.98835E-04
 -1        46-3.23247E-05-7.23278E-04 3.42259E-04
 -1        47 4.32321E-05-2.92666E-04 2.25202E-04
 -1        48-4.32382E-05-2.92657E-04 2.25163E-04
 -1        49 3.22562E-05-7.23242E-04 3.42215E-04
 -1        50-2.60539E-05-9.92030E-04 2.98912E-04
 -1        51-1.18153E-04-1.27782E-03 1.85504E-04
 -1        74-1.25628E-04-1.27103E-03-1.85535E-04
 -1        75-3.01790E-05-9.87969E-04-2.98963E-04
 -1        76 3.39937E-05-7.24989E-04-3.42210E-04
 -1        77-4.20589E-05-2.93779E-04-2.25158E-04
 -1        89 1.25802E-04-1.27080E-03-1.85531E-04
 -1        90 3.02856E-05-9.87913E-04-2.98905E-04
 -1        91-3.40318E-05-7.25008E-04-3.42244E-04
 -1        92 4.20585E-05-2.93783E-04-2.25192E-04
 -1        98 0.00000E+00 0.00000E+00 0.00000E+00
 -1        99 0.00000E+00 0.00000E+00 0.00000E+00
 -1       100 0.00000E+00 0.00000E+00 0.00000E+00
 -1       101 0.00000E+00 0.00000E+00 0.00000E+00
 -1       102 0.00000E+00 0.00000E+00 0.00000E+00
 -1       124-1.16479E-06-1.17117E-03 1.74789E-04
 -1       125 1.18862E-07-1.40321E-03 1.83410E-04
 -1       126 1.25902E-06-1.17120E-03 1.74881E-04
 -1       127-2.45859E-08-1.03164E-03 3.30135E-04
 -1       128 2.06634E-06-7.60178E-04 3.67312E-04
 -1       129 3.57504E-08-7.04358E-04 3.74229E-04
 -1       130-2.05351E-06-7.60176E-04 3.67305E-04
 -1       131-1.00285E-08-2.97480E-04 2.18706E-04
 -1       153-9.92965E-05-1.52306E-03 8.24155E-05
 -1       154-1.45821E-06-1.34620E-03-1.27026E-07
 -1       155 1.01965E-04-1.51716E-03-8.23998E-05
 -1       156-3.51667E-09-1.11479E-03 4.64459E-07
 -1       157 1.99176E-05-6.27880E-04 1.47316E-04
 -1       158 3.28522E-07-6.41968E-04 1.50345E-07
 -1       159-2.04846E-05-6.29288E-04-1.47401E-04
 -1       160-8.45424E-09-2.43986E-04 1.41832E-09
 -1       182-7.66790E-06-1.17358E-03-1.74801E-04
 -1       183 1.35379E-07-1.40094E-03-1.83399E-04
 -1       184 7.84542E-06-1.17356E-03-1.74842E-04
 -1       185 2.97805E-10-1.03212E-03-3.31034E-04
 -1       186 3.52740E-06-7.59713E-04-3.67277E-04
 -1       187 3.16467E-08-7.04698E-04-3.74563E-04
 -1       188-3.50290E-06-7.59704E-04-3.67281E-04
 -1       189-5.90611E-09-2.97366E-04-2.18715E-04
 -1       211-1.01925E-04-1.51697E-03-8.24701E-05
 -1       212 1.48878E-06-1.34619E-03 7.29322E-08
 -1       213 9.92516E-05-1.52320E-03 8.23932E-05
 -1       214-2.78748E-08-1.11477E-03 4.64638E-07
 -1       215 2.04991E-05-6.29311E-04-1.47390E-04
 -1       216-2.85865E-07-6.41969E-04 1.26034E-07
 -1       217-1.99160E-05-6.27851E-04 1.47320E-04
 -1       218 7.77232E-09-2.43983E-04 5.38695E-09
 -1       250 1.52087E-08-1.51080E-03 8.19203E-05
 -1       251-1.94524E-06-9.57996E-04-4.52150E-08
 -1       252-1.21646E-07-1.22189E-03 2.47236E-08
 -1       253 1.86184E-06-9.57996E-04-2.17337E-07
 -1       254 2.19745E-08-1.51479E-03-8.17425E-05
 -1       255 1.92585E-08-1.09029E-03-9.87329E-09
 -1       256 3.66975E-09-6.20918E-04 1.64368E-04
 -1       257 4.20616E-07-7.24585E-04-1.77789E-08
 -1       258-2.16521E-08-6.43082E-04-5.11078E-09
 -1       259-4.28902E-07-7.24585E-04 1.19716E-08
 -1       260 1.99259E-09-6.19964E-04-1.64359E-04
 -1       261 1.03768E-08-2.76059E-04-1.09335E-08
 -3
    1PSTEP                         4           4           1          
  100CL  104 2.00000E-02          81                     1    4           1
 -4  DISP        4    1
 -5  D1          1    2    1    0
 -5  D2          1    2    2    0
 -5  D3          1    2    3    0
 -5  ALL         1    2    0    0    1ALL
 -1         5 0.00000E+00 0.00000E+00 0.00000E+00
 -1         6 0.00000E+00 0.00000E+00 0.00000E+00
 -1         7 0.00000E+00 0.00000E+00 0.00000E+00
 -1         8 0.00000E+00 0.00000E+00 0.00000E+00
 -1        21 0.00000E+00 0.00000E+00 0.00000E+00
 -1        22 0.00000E+00 0.00000E+00 0.00000E+00
 -1        23 0.00000E+00 0.00000E+00 0.00000E+00
 -1        24 0.00000E+00 0.00000E+00 0.00000E+00
 -1        25 0.00000E+00 0.00000E+00 0.00000E+00
 -1        26 0.00000E+00 0.00000E+00 0.00000E+00
 -1        27 0.00000E+00 0.00000E+00 0.00000E+00
 -1        28 0.00000E+00 0.00000E+00 0.00000E+00
 -1        29 0.00000E+00 0.00000E+00 0.00000E+00
 -1        30 0.00000E+00 0.00000E+00 0.00000E+00
 -1        31 0.00000E+00 0.00000E+00 0.00000E+00
 -1        32 0.00000E+00 0.00000E+00 0.00000E+00
 -1        44-9.07217E-05 9.92663E-04-1.43903E-04
 -1        45-1.96473E-05 7.70407E-04-2.31957E-04
 -1        46 2.47991E-05 5.60921E-04-2.65492E-04
 -1        47-3.36941E-05 2.26953E-04-1.74706E-04
 -1        48 3.37011E-05 2.26949E-04-1.74709E-04
 -1        49-2.47833E-05 5.60896E-04-2.65498E-04
 -1        50 1.96621E-05 7.70420E-04-2.31959E-04
 -1        51 9.07276E-05 9.92596E-04-1.43844E-04
 -1        74 9.78402E-05 9.85854E-04 1.43903E-04
 -1        75 2.36016E-05 7.66487E-04 2.31958E-04
 -1        76-2.63742E-05 5.62506E-04 2.65496E-04
 -1        77 3.25800E-05 2.28043E-04 1.74707E-04
 -1        89-9.77755E-05 9.85786E-04 1.43816E-04
 -1        90-2.36425E-05 7.66473E-04 2.31925E-04
 -1        91 2.63977E-05 5.62491E-04 2.65504E-04
 -1        92-3.25845E-05 2.28041E-04 1.74719E-04
 -1        98 0.00000E+00 0.00000E+00 0.00000E+00
 -1        99 0.00000E+00 0.00000E+00 0.00000E+00
 -1       100 0.00000E+00 0.00000E+00 0.00000E+00
 -1       101 0.00000E+00 0.00000E+00 0.00000E+00
 -1       102 0.00000E+00 0.00000E+00 0.00000E+00
 -1       124 4.48200E-07 9.08402E-04-1.35553E-04
 -1       125 6.03266E-09 1.08885E-03-1.42297E-04
 -1       126-4.32349E-07 9.08450E-04-1.35583E-04
 -1       127 1.35968E-08 8.00323E-04-2.55928E-04
 -1       128-1.47154E-06 5.89936E-04-2.84989E-04
 -1       129 2.77335E-09 5.46607E-04-2.90307E-04
 -1       130 1.48064E-06 5.89946E-04-2.84986E-04
 -1       131 3.71970E-09 2.30893E-04-1.69702E-04
 -1       153 7.66882E-05 1.18267E-03-6.39106E-05
 -1       154 1.36223E-06 1.04497E-03 3.00681E-08
 -1       155-7.91765E-05 1.17609E-03 6.39394E-05
 -1       156-4.20572E-08 8.65009E-04-4.28305E-07
 -1       157-1.54085E-05 4.87086E-04-1.14296E-04
 -1       158-2.87486E-07 4.98191E-04-1.40241E-07
 -1       159 1.59495E-05 4.88567E-04 1.14362E-04
 -1       160 2.29388E-08 1.89324E-04-1.61298E-10
 -1       182 7.17845E-06 9.10750E-04 1.35551E-04
 -1       183-3.43497E-08 1.08641E-03 1.42188E-04
 -1       184-7.17908E-06 9.10732E-04 1.35567E-04
 -1       185 8.61998E-09 8.00659E-04 2.56746E-04
 -1       186-2.97116E-06 5.89448E-04 2.84946E-04
 -1       187-1.46084E-08 5.47020E-04 2.90628E-04
 -1       188 2.96688E-06 5.89438E-04 2.84935E-04
 -1       189 9.06327E-10 2.30793E-04 1.69718E-04
 -1       211 7.92081E-05 1.17605E-03 6.39362E-05
 -1       212-1.38386E-06 1.04496E-03 1.54820E-08
 -1       213-7.66856E-05 1.18264E-03-6.39099E-05
 -1       214 6.93222E-08 8.64987E-04-4.30177E-07
 -1       215-1.59450E-05 4.88561E-04 1.14354E-04
 -1       216 2.77158E-07 4.98190E-04-1.43528E-07
 -1       217 1.54102E-05 4.87070E-04-1.14297E-04
 -1       218-1.96561E-08 1.89319E-04-7.19218E-09
 -1       250 1.63542E-08 1.17180E-03-6.35170E-05
 -1       251 2.12133E-06 7.43238E-04 5.40812E-08
 -1       252 3.45407E-08 9.47908E-04-3.25007E-08
 -1       253-2.09919E-06 7.43241E-04 9.36013E-08
 -1       254-1.86025E-09 1.17606E-03 6.33278E-05
 -1       255-1.26860E-09 8.46113E-04 1.13776E-08
 -1       256 7.62471E-09 4.81887E-04-1.27519E-04
 -1       257-4.70540E-07 5.62289E-04 1.29885E-08
 -1       258 1.03596E-08 4.98937E-04 2.68055E-09
 -1       259 4.76696E-07 5.62289E-04 7.04986E-09
 -1       260-1.80568E-09 4.80892E-04 1.27502E-04
 -1       261-1.67806E-09 2.14233E-04 4.20706E-09
 -3
    1PSTEP                         5           5           1          
  100CL  105 2.50000E-02          81                     1    5           1
 -4  DISP        4    1
 -5  D1          1    2    1    0
 -5  D2          1    2    2    0
 -5  D3          1    2    3    0
 -5  ALL         1    2    0    0    1ALL
 -1         5 0.00000E+00 0.00000E+00 0.00000E+00
 -1         6 0.00000E+00 0.00000E+00 0.00000E+00
 -1         7 0.00000E+00 0.00000E+00 0.00000E+00
 -1         8 0.00000E+00 0.00000E+00 0.00000E+00
 -1        21 0.00000E+00 0.00000E+00 0.00000E+00
 -1        22 0.00000E+00 0.00000E+00 0.00000E+00
 -1        23 0.00000E+00 0.00000E+00 0.00000E+00
 -1        24 0.00000E+00 0.00000E+00 0.00000E+00
 -1        25 0.00000E+00 0.00000E+00 0.00000E+00
 -1        26 0.00000E+00 0.00000E+00 0.00000E+00
 -1        27 0.00000E+00 0.00000E+00 0.00000E+00
 -1        28 0.00000E+00 0.00000E+00 0.00000E+00
 -1        29 0.00000E+00 0.00000E+00 0.00000E+00
 -1        30 0.00000E+00 0.00000E+00 0.00000E+00
 -1        31 0.00000E+00 0.00000E+00 0.00000E+00
 -1        32 0.00000E+00 0.00000E+00 0.00000E+00
 -1        44 6.69820E-05-7.49337E-04 1.08391E-04
 -1        45 1.42887E-05-5.81325E-04 1.74854E-04
 -1        46-1.85824E-05-4.23386E-04 2.00340E-04
 -1        47 2.55611E-05-1.71184E-04 1.31791E-04
 -1        48-2.55614E-05-1.71182E-04 1.31778E-04
 -1        49 1.85336E-05-4.23391E-04 2.00336E-04
 -1        50-1.42442E-05-5.81347E-04 1.74918E-04
 -1        51-6.71067E-05-7.49432E-04 1.08535E-04
 -1        74-7.40091E-05-7.42024E-04-1.08386E-04
 -1        75-1.82757E-05-5.77357E-04-1.74823E-04
 -1        76 2.00652E-05-4.24853E-04-2.00326E-04
 -1        77-2.44667E-05-1.72304E-04-1.31792E-04
 -1        89 7.40652E-05-7.42055E-04-1.08479E-04
 -1        90 1.82766E-05-5.77333E-04-1.74818E-04
 -1        91-2.00920E-05-4.24877E-04-2.00329E-04
 -1        92 2.44590E-05-1.72305E-04-1.31797E-04
 -1        98 0.00000E+00 0.00000E+00 0.00000E+00
 -1        99 0.00000E+00 0.00000E+00 0.00000E+00
 -1       100 0.00000E+00 0.00000E+00 0.00000E+00
 -1       101 0.00000E+00 0.00000E+00 0.00000E+00
 -1       102 0.00000E+00 0.00000E+00 0.00000E+00
 -1       124 1.44977E-06-6.85028E-04 1.02155E-04
 -1       125 2.87067E-08-8.21187E-04 1.07211E-04
 -1       126-1.48812E-06-6.85011E-04 1.02158E-04
 -1       127-1.75468E-08-6.03674E-04 1.92897E-04
 -1       128 7.79508E-07-4.45194E-04 2.14952E-04
 -1       129 1.43250E-08-4.12283E-04 2.18849E-04
 -1       130-7.86313E-07-4.45187E-04 2.14935E-04
 -1       131-4.67921E-09-1.74312E-04 1.28044E-04
 -1       153-5.70676E-05-8.93133E-04 4.81222E-05
 -1       154-1.23404E-06-7.86729E-04-2.28022E-10
 -1       155 5.94885E-05-8.85315E-04-4.81189E-05
 -1       156 9.69153E-08-6.52445E-04 4.08618E-07
 -1       157 1.13717E-05-3.67241E-04 8.62149E-05
 -1       158 2.79760E-07-3.75878E-04 1.46304E-07
 -1       159-1.18818E-05-3.68900E-04-8.62632E-05
 -1       160-4.62361E-08-1.43004E-04-4.30876E-09
 -1       182-6.04227E-06-6.87425E-04-1.02097E-04
 -1       183 3.21585E-08-8.18529E-04-1.07203E-04
 -1       184 6.08440E-06-6.87473E-04-1.02162E-04
 -1       185-1.87043E-08-6.03795E-04-1.93732E-04
 -1       186 2.42789E-06-4.44657E-04-2.14888E-04
 -1       187 2.08149E-09-4.12936E-04-2.19152E-04
 -1       188-2.43519E-06-4.44662E-04-2.14887E-04
 -1       189-5.25561E-09-1.74246E-04-1.28055E-04
 -1       211-5.94457E-05-8.85310E-04-4.81934E-05
 -1       212 1.29342E-06-7.86744E-04 2.15228E-08
 -1       213 5.70071E-05-8.93206E-04 4.81658E-05
 -1       214-1.54187E-07-6.52443E-04 4.07665E-07
 -1       215 1.18816E-05-3.68919E-04-8.62540E-05
 -1       216-2.57379E-07-3.75883E-04 1.52117E-07
 -1       217-1.13798E-05-3.67242E-04 8.62261E-05
 -1       218 3.86720E-08-1.43007E-04 9.73932E-09
 -1       250-1.96643E-08-8.82374E-04 4.78819E-05
 -1       251-2.59592E-06-5.60705E-04 8.07928E-09
 -1       252-7.29834E-08-7.15282E-04 6.07768E-08
 -1       253 2.55607E-06-5.60689E-04-7.62956E-08
 -1       254-1.19804E-08-8.87460E-04-4.77361E-05
 -1       255 4.45825E-09-6.38107E-04 1.99901E-09
 -1       256-4.51570E-09-3.63991E-04 9.61565E-05
 -1       257 5.63787E-07-4.24168E-04-2.33380E-08
 -1       258-2.28582E-08-3.76647E-04-1.01936E-08
 -1       259-5.77719E-07-4.24168E-04-8.92913E-09
 -1       260-1.25721E-08-3.62906E-04-9.61358E-05
 -1       261 3.11057E-09-1.61667E-04 3.38342E-09
 -3
    1PSTEP                         6           6           1          
  100CL  106 3.00000E-02          81                     1    6           1
 -4  DISP        4    1
 -5  D1          1    2    1    0
 -5  D2          1    2    2    0
 -5  D3          1    2    3    0
 -5  ALL         1    2    0    0    1ALL
 -1         5 0.00000E+00 0.00000E+00 0.00000E+00
 -1         6 0.00000E+00 0.00000E+00 0.00000E+00
 -1         7 0.00000E+00 0.00000E+00 0.00000E+00
 -1         8 0.00000E+00 0.00000E+00 0.00000E+00
 -1        21 0.00000E+00 0.00000E+00 0.00000E+00
 -1        22 0.00000E+00 0.00000E+00 0.00000E+00
 -1        23 0.00000E+00 0.00000E+00 0.00000E+00
 -1        24 0.00000E+00 0.00000E+00 0.00000E+00
 -1        25 0.00000E+00 0.00000E+00 0.00000E+00
 -1        26 0.00000E+00 0.00000E+00 0.00000E+00
 -1        27 0.00000E+00 0.00000E+00 0.00000E+00
 -1        28 0.00000E+00 0.00000E+00 0.00000E+00
 -1        29 0.00000E+00 0.00000E+00 0.00000E+00
 -1        30 0.00000E+00 0.00000E+00 0.00000E+00
 -1        31 0.00000E+00 0.00000E+00 0.00000E+00
 -1        32 0.00000E+00 0.00000E+00 0.00000E+00
 -1        44-5.03417E-05 5.41667E-04-7.87367E-05
 -1        45-1.16260E-05 4.20391E-04-1.26889E-04
 -1        46 1.37866E-05 3.07609E-04-1.45497E-04
 -1        47-1.82278E-05 1.24482E-04-9.56056E-05