    1C
    1UUSER                                                              
    1UDATE              15.july.2018                                    
    1UTIME              20:17:49                                        
    1UHOST                                                              
    1UPGM               CalculiX                                        
    1UVERSION           Version 2.13                             
    1UCOMPILETIME       jue jun 14 00:40:39 CEST 2018                    
    1UDIR                                                               
    1UDBN                                                               
    1UMAT    1EL                                                        
    2C                            81                                     1
 -1         5 0.00000E+00 0.00000E+00 8.00000E+00
 -1         6 1.00000E+00 0.00000E+00 8.00000E+00
 -1         7 1.00000E+00 1.00000E+00 8.00000E+00
 -1         8 0.00000E+00 1.00000E+00 8.00000E+00
 -1        21 2.50000E-01 0.00000E+00 8.00000E+00
 -1        22 5.00000E-01 0.00000E+00 8.00000E+00
 -1        23 7.50000E-01 0.00000E+00 8.00000E+00
 -1        24 1.00000E+00 2.50000E-01 8.00000E+00
 -1        25 1.00000E+00 5.00000E-01 8.00000E+00
 -1        26 1.00000E+00 7.50000E-01 8.00000E+00
 -1        27 7.50000E-01 1.00000E+00 8.00000E+00
 -1        28 5.00000E-01 1.00000E+00 8.00000E+00
 -1        29 2.50000E-01 1.00000E+00 8.00000E+00
 -1        30 0.00000E+00 7.50000E-01 8.00000E+00
 -1        31 0.00000E+00 5.00000E-01 8.00000E+00
 -1        32 0.00000E+00 2.50000E-01 8.00000E+00
 -1        44 1.00000E+00 0.00000E+00 6.00000E+00
 -1        45 1.00000E+00 0.00000E+00 6.50000E+00
 -1        46 1.00000E+00 0.00000E+00 7.00000E+00
 -1        47 1.00000E+00 0.00000E+00 7.50000E+00
 -1        48 0.00000E+00 0.00000E+00 7.50000E+00
 -1        49 0.00000E+00 0.00000E+00 7.00000E+00
 -1        50 0.00000E+00 0.00000E+00 6.50000E+00
 -1        51 0.00000E+00 0.00000E+00 6.00000E+00
 -1        74 1.00000E+00 1.00000E+00 6.00000E+00
 -1        75 1.00000E+00 1.00000E+00 6.50000E+00
 -1        76 1.00000E+00 1.00000E+00 7.00000E+00
 -1        77 1.00000E+00 1.00000E+00 7.50000E+00
 -1        89 0.00000E+00 1.00000E+00 6.00000E+00
 -1        90 0.00000E+00 1.00000E+00 6.50000E+00
 -1        91 0.00000E+00 1.00000E+00 7.00000E+00
 -1        92 0.00000E+00 1.00000E+00 7.50000E+00
 -1        98 5.00000E-01 2.50000E-01 8.00000E+00
 -1        99 2.50000E-01 5.00000E-01 8.00000E+00
 -1       100 5.00000E-01 5.00000E-01 8.00000E+00
 -1       101 7.50000E-01 5.00000E-01 8.00000E+00
 -1       102 5.00000E-01 7.50000E-01 8.00000E+00
 -1       124 2.50000E-01 0.00000E+00 6.00000E+00
 -1       125 5.00000E-01 0.00000E+00 6.00000E+00
 -1       126 7.50000E-01 0.00000E+00 6.00000E+00
 -1       127 5.00000E-01 0.00000E+00 6.50000E+00
 -1       128 2.50000E-01 0.00000E+00 7.00000E+00
 -1       129 5.00000E-01 0.00000E+00 7.00000E+00
 -1       130 7.50000E-01 0.00000E+00 7.00000E+00
 -1       131 5.00000E-01 0.00000E+00 7.50000E+00
 -1       153 1.00000E+00 2.50000E-01 6.00000E+00
 -1       154 1.00000E+00 5.00000E-01 6.00000E+00
 -1       155 1.00000E+00 7.50000E-01 6.00000E+00
 -1       156 1.00000E+00 5.00000E-01 6.50000E+00
 -1       157 1.00000E+00 2.50000E-01 7.00000E+00
 -1       158 1.00000E+00 5.00000E-01 7.00000E+00
 -1       159 1.00000E+00 7.50000E-01 7.00000E+00
 -1       160 1.00000E+00 5.00000E-01 7.50000E+00
 -1       182 7.50000E-01 1.00000E+00 6.00000E+00
 -1       183 5.00000E-01 1.00000E+00 6.00000E+00
 -1       184 2.50000E-01 1.00000E+00 6.00000E+00
 -1       185 5.00000E-01 1.00000E+00 6.50000E+00
 -1       186 7.50000E-01 1.00000E+00 7.00000E+00
 -1       187 5.00000E-01 1.00000E+00 7.00000E+00
 -1       188 2.50000E-01 1.00000E+00 7.00000E+00
 -1       189 5.00000E-01 1.00000E+00 7.50000E+00
 -1       211 0.00000E+00 7.50000E-01 6.00000E+00
 -1       212 0.00000E+00 5.00000E-01 6.00000E+00
 -1       213 0.00000E+00 2.50000E-01 6.00000E+00
 -1       214 0.00000E+00 5.00000E-01 6.50000E+00
 -1       215 0.00000E+00 7.50000E-01 7.00000E+00
 -1       216 0.00000E+00 5.00000E-01 7.00000E+00
 -1       217 0.00000E+00 2.50000E-01 7.00000E+00
 -1       218 0.00000E+00 5.00000E-01 7.50000E+00
 -1       250 5.00000E-01 2.50000E-01 6.00000E+00
 -1       251 2.50000E-01 5.00000E-01 6.00000E+00
 -1       252 5.00000E-01 5.00000E-01 6.00000E+00
 -1       253 7.50000E-01 5.00000E-01 6.00000E+00
 -1       254 5.00000E-01 7.50000E-01 6.00000E+00
 -1       255 5.00000E-01 5.00000E-01 6.50000E+00
 -1       256 5.00000E-01 2.50000E-01 7.00000E+00
 -1       257 2.50000E-01 5.00000E-01 7.00000E+00
 -1       258 5.00000E-01 5.00000E-01 7.00000E+00
 -1       259 7.50000E-01 5.00000E-01 7.00000E+00
 -1       260 5.00000E-01 7.50000E-01 7.00000E+00
 -1       261 5.00000E-01 5.00000E-01 7.50000E+00
 -3
    3C                             8                                     1
 -1        25    4    0    1
 -2        51       125       252       212        49       129       258       216       124       250
 -2       251       213        50       127       255       214       128       256       257       217
 -1        26    4    0    1
 -2       125        44       154       252       129        46       158       258       126       153
 -2       253       250       127        45       156       255       130       157       259       256
 -1        27    4    0    1
 -2       212       252       183        89       216       258       187        91       251       254
 -2       184       211       214       255       185        90       257       260       188       215
 -1        28    4    0    1
 -2       252       154        74       183       258       158        76       187       253       155
 -2       182       254       255       156        75       185       259       159       186       260
 -1        29    4    0    1
 -2        49       129       258       216         5        22       100        31       128       256
 -2       257       217        48       131       261       218        21        98        99        32
 -1        30    4    0    1
 -2       129        46       158       258        22         6        25       100       130       157
 -2       259       256       131        47       160       261        23        24       101        98
 -1        31    4    0    1
 -2       216       258       187        91        31       100        28         8       257       260
 -2       188       215       218       261       189        92        99       102        29        30
 -1        32    4    0    1
 -2       258       158        76       187       100        25         7        28       259       159
 -2       186       260       261       160        77       189       101        26        27       102
 -3
    1PSTEP                         1           1           1          
  100CL  101 5.00000E-03          81                     1    1           1
 -4  DISP        4    1
 -5  D1          1    2    1    0
 -5  D2          1    2    2    0
 -5  D3          1    2    3    0
 -5  ALL         1    2    0    0    1ALL
 -1         5 0.00000E+00 0.00000E+00 0.00000E+00
 -1         6 0.00000E+00 0.00000E+00 0.00000E+00
 -1         7 0.00000E+00 0.00000E+00 0.00000E+00
 -1         8 0.00000E+00 0.00000E+00 0.00000E+00
 -1        21 0.00000E+00 0.00000E+00 0.00000E+00
 -1        22 0.00000E+00 0.00000E+00 0.00000E+00
 -1        23 0.00000E+00 0.00000E+00 0.00000E+00
 -1        24 0.00000E+00 0.00000E+00 0.00000E+00
 -1        25 0.00000E+00 0.00000E+00 0.00000E+00
 -1        26 0.00000E+00 0.00000E+00 0.00000E+00
 -1        27 0.00000E+00 0.00000E+00 0.00000E+00
 -1        28 0.00000E+00 0.00000E+00 0.00000E+00
 -1        29 0.00000E+00 0.00000E+00 0.00000E+00
 -1        30 0.00000E+00 0.00000E+00 0.00000E+00
 -1        31 0.00000E+00 0.00000E+00 0.00000E+00
 -1        32 0.00000E+00 0.00000E+00 0.00000E+00
 -1        44-5.71466E-05-3.46353E-03 4.48816E-04
 -1        45 5.72874E-05-2.56137E-03 7.85474E-04
 -1        46-4.82926E-05-1.79775E-03 9.49600E-04
 -1        47 1.30766E-04-6.75681E-04 5.43607E-04
 -1        48-1.30765E-04-6.75681E-04 5.43606E-04
 -1        49 4.82953E-05-1.79774E-03 9.49597E-04
 -1        50-5.72817E-05-2.56137E-03 7.85468E-04
 -1        51 5.71605E-05-3.46353E-03 4.48806E-04
 -1        74 3.12548E-04-4.40249E-03-4.94975E-04
 -1        75 1.87800E-04-2.96765E-03-7.85187E-04
 -1        76-1.08285E-04-1.60166E-03-9.50303E-04
 -1        77-2.06930E-04-5.28538E-04-5.58526E-04
 -1        89-3.12534E-04-4.40250E-03-4.94985E-04
 -1        90-1.87794E-04-2.96765E-03-7.85191E-04
 -1        91 1.08288E-04-1.60166E-03-9.50305E-04
 -1        92 2.06931E-04-5.28539E-04-5.58527E-04
 -1        98 0.00000E+00 0.00000E+00 0.00000E+00
 -1        99 0.00000E+00 0.00000E+00 0.00000E+00
 -1       100 0.00000E+00 0.00000E+00 0.00000E+00
 -1       101 0.00000E+00 0.00000E+00 0.00000E+00
 -1       102 0.00000E+00 0.00000E+00 0.00000E+00
 -1       124 1.51060E-04-2.96774E-03 4.30145E-04
 -1       125 5.61509E-09-3.59124E-03 4.48887E-04
 -1       126-1.51047E-04-2.96774E-03 4.30148E-04
 -1       127 3.22572E-09-2.56445E-03 9.04084E-04
 -1       128-9.54386E-06-1.95323E-03 9.48578E-04
 -1       129 9.51559E-10-1.81412E-03 9.41979E-04
 -1       130 9.54603E-06-1.95323E-03 9.48580E-04
 -1       131 1.26304E-10-7.36444E-04 5.56431E-04
 -1       153 6.83470E-05-3.64095E-03 1.91564E-04
 -1       154-1.19842E-04-2.50706E-03-2.11301E-05
 -1       155-6.28841E-05-3.89104E-03-2.38165E-04
 -1       156-1.19352E-04-2.79041E-03-6.42597E-05
 -1       157-2.02927E-05-1.50943E-03 3.92349E-04
 -1       158 8.79459E-05-1.56773E-03-2.92330E-05
 -1       159 4.63807E-05-1.47675E-03-4.11137E-04
 -1       160 3.95762E-05-6.56533E-04 4.90025E-06
 -1       182 1.15308E-04-2.56760E-03-4.71572E-04
 -1       183 5.38937E-09-4.35189E-03-4.76920E-04
 -1       184-1.15296E-04-2.56760E-03-4.71576E-04
 -1       185 3.28122E-09-2.83380E-03-8.75140E-04
 -1       186-4.39568E-05-2.16197E-03-9.83043E-04
 -1       187 8.95980E-10-1.83254E-03-9.64379E-04
 -1       188 4.39590E-05-2.16197E-03-9.83045E-04
 -1       189 1.33198E-10-7.20359E-04-5.64635E-04
 -1       211 6.29010E-05-3.89104E-03-2.38174E-04
 -1       212 1.19863E-04-2.50706E-03-2.11414E-05
 -1       213-6.83296E-05-3.64095E-03 1.91555E-04
 -1       214 1.19356E-04-2.79041E-03-6.42653E-05
 -1       215-4.63770E-05-1.47675E-03-4.11139E-04
 -1       216-8.79417E-05-1.56773E-03-2.92354E-05
 -1       217 2.02963E-05-1.50943E-03 3.92346E-04
 -1       218-3.95759E-05-6.56533E-04 4.89985E-06
 -1       250 5.03237E-09-4.07971E-03 1.74580E-04
 -1       251 2.97828E-05-2.57230E-03-1.06436E-05
 -1       252 4.17801E-09-3.12536E-03-1.57846E-05
 -1       253-2.97690E-05-2.57230E-03-1.06431E-05
 -1       254 4.79630E-09-4.41000E-03-2.54362E-04
 -1       255 4.13208E-09-2.60115E-03-3.19031E-05
 -1       256 5.70507E-10-1.60793E-03 3.96048E-04
 -1       257-4.08229E-05-1.75016E-03-1.20197E-05
 -1       258 1.99097E-10-1.78993E-03-1.45808E-05
 -1       259 4.08253E-05-1.75016E-03-1.20173E-05
 -1       260 5.67320E-10-1.62325E-03-4.18670E-04
 -1       261 3.89827E-10-7.16938E-04-1.96376E-06
 -3
    1PSTEP                         2           2           1          
  100CL  102 1.00000E-02          81                     1    2           1
 -4  DISP        4    1
 -5  D1          1    2    1    0
 -5  D2          1    2    2    0
 -5  D3          1    2    3    0
 -5  ALL         1    2    0    0    1ALL
 -1         5 0.00000E+00 0.00000E+00 0.00000E+00
 -1         6 0.00000E+00 0.00000E+00 0.00000E+00
 -1         7 0.00000E+00 0.00000E+00 0.00000E+00
 -1         8 0.00000E+00 0.00000E+00 0.00000E+00
 -1        21 0.00000E+00 0.00000E+00 0.00000E+00
 -1        22 0.00000E+00 0.00000E+00 0.00000E+00
 -1        23 0.00000E+00 0.00000E+00 0.00000E+00
 -1        24 0.00000E+00 0.00000E+00 0.00000E+00
 -1        25 0.00000E+00 0.00000E+00 0.00000E+00
 -1        26 0.00000E+00 0.00000E+00 0.00000E+00
 -1        27 0.00000E+00 0.00000E+00 0.00000E+00
 -1        28 0.00000E+00 0.00000E+00 0.00000E+00
 -1        29 0.00000E+00 0.00000E+00 0.00000E+00
 -1        30 0.00000E+00 0.00000E+00 0.00000E+00
 -1        31 0.00000E+00 0.00000E+00 0.00000E+00
 -1        32 0.00000E+00 0.00000E+00 0.00000E+00
 -1        44-1.57870E-04 1.60260E-03-2.34057E-04
 -1        45-3.81690E-05 1.24612E-03-3.77214E-04
 -1        46 4.32218E-05 9.15963E-04-4.32131E-04
 -1        47-5.30691E-05 3.70967E-04-2.84184E-04
 -1        48 5.30681E-05 3.70985E-04-2.84273E-04
 -1        49-4.33176E-05 9.16027E-04-4.32242E-04
 -1        50 3.84618E-05 1.24601E-03-3.77099E-04
 -1        51 1.58205E-04 1.60217E-03-2.34021E-04
 -1        74 1.51634E-04 1.61208E-03 2.34328E-04
 -1        75 3.41387E-05 1.25106E-03 3.77123E-04
 -1        76-4.12705E-05 9.13851E-04 4.32238E-04
 -1        77 5.43061E-05 3.69409E-04 2.84345E-04
 -1        89-1.51349E-04 1.61255E-03 2.34419E-04
 -1        90-3.38351E-05 1.25114E-03 3.77244E-04
 -1        91 4.11585E-05 9.13799E-04 4.32122E-04
 -1        92-5.43065E-05 3.69387E-04 2.84248E-04
 -1        98 0.00000E+00 0.00000E+00 0.00000E+00
 -1        99 0.00000E+00 0.00000E+00 0.00000E+00
 -1       100 0.00000E+00 0.00000E+00 0.00000E+00
 -1       101 0.00000E+00 0.00000E+00 0.00000E+00
 -1       102 0.00000E+00 0.00000E+00 0.00000E+00
 -1       124 6.97193E-06 1.48196E-03-2.20736E-04
 -1       125 3.23492E-07 1.76780E-03-2.31446E-04
 -1       126-6.57476E-06 1.48196E-03-2.20580E-04
 -1       127 5.17147E-09 1.30269E-03-4.18125E-04
 -1       128-3.93090E-06 9.58734E-04-4.63587E-04
 -1       129 8.02827E-08 8.89223E-04-4.72687E-04
 -1       130 3.98881E-06 9.58744E-04-4.63577E-04
 -1       131-1.57569E-08 3.75314E-04-2.75997E-04
 -1       153 1.28077E-04 1.91647E-03-1.03902E-04
 -1       154-3.74571E-07 1.69705E-03-1.20104E-07
 -1       155-1.26038E-04 1.92247E-03 1.04320E-04
 -1       156 6.52824E-07 1.40688E-03 6.48740E-07
 -1       157-2.56143E-05 7.93950E-04-1.85957E-04
 -1       158-1.78973E-07 8.10418E-04 3.04621E-07
 -1       159 2.51239E-05 7.92704E-04 1.86014E-04
 -1       160-2.17621E-07 3.08106E-04-1.85630E-08
 -1       182 2.04923E-06 1.47813E-03 2.20947E-04
 -1       183 3.38676E-07 1.77348E-03 2.31642E-04
 -1       184-1.66059E-06 1.47814E-03 2.20785E-04
 -1       185-3.93935E-09 1.30383E-03 4.17297E-04
 -1       186-2.58996E-06 9.60168E-04 4.63814E-04
 -1       187 8.47694E-08 8.88968E-04 4.72578E-04
 -1       188 2.64434E-06 9.60185E-04 4.63809E-04
 -1       189-1.74508E-08 3.75300E-04 2.76030E-04
 -1       211 1.26169E-04 1.92282E-03 1.04140E-04
 -1       212 6.37632E-07 1.69702E-03 1.99148E-07
 -1       213-1.27926E-04 1.91610E-03-1.04083E-04
 -1       214-6.94209E-07 1.40688E-03 5.98197E-07
 -1       215-2.50810E-05 7.92647E-04 1.86011E-04
 -1       216 3.19218E-07 8.10410E-04 2.32051E-07
 -1       217 2.56660E-05 7.94005E-04-1.85963E-04
 -1       218 2.20127E-07 3.08106E-04-1.51761E-08
 -1       250 7.83547E-08 1.90927E-03-1.03068E-04
 -1       251-1.75271E-06 1.20960E-03 1.54223E-07
 -1       252-2.35435E-07 1.54220E-03-2.99811E-08
 -1       253 1.69391E-06 1.20962E-03-2.20659E-07
 -1       254 8.62333E-08 1.90755E-03 1.03571E-04
 -1       255 7.82212E-08 1.37587E-03 1.46040E-07
 -1       256 1.07002E-08 7.83078E-04-2.07481E-04
 -1       257 5.79262E-07 9.14406E-04 3.80158E-09
 -1       258-4.58760E-08 8.12000E-04 8.13764E-08
 -1       259-5.72968E-07 9.14410E-04 9.17671E-08
 -1       260 1.30322E-08 7.83928E-04 2.07602E-04
 -1       261 2.61824E-08 3.48453E-04 1.53141E-08
 -3
    1PSTEP                         3           3           1          
  100CL  103 1.50000E-02          81                     1    3           1
 -4  DISP        4    1
 -5  D1          1    2    1    0
 -5  D2          1    2    2    0
 -5  D3          1    2    3    0
 -5  ALL         1    2    0    0    1ALL
 -1         5 0.00000E+00 0.00000E+00 0.00000E+00
 -1         6 0.00000E+00 0.00000E+00 0.00000E+00
 -1         7 0.00000E+00 0.00000E+00 0.00000E+00
 -1         8 0.00000E+00 0.00000E+00 0.00000E+00
 -1        21 0.00000E+00 0.00000E+00 0.00000E+00
 -1        22 0.00000E+00 0.00000E+00 0.00000E+00
 -1        23 0.00000E+00 0.00000E+00 0.00000E+00
 -1        24 0.00000E+00 0.00000E+00 0.00000E+00
 -1        25 0.00000E+00 0.00000E+00 0.00000E+00
 -1        26 0.00000E+00 0.00000E+00 0.00000E+00
 -1        27 0.00000E+00 0.00000E+00 0.00000E+00
 -1        28 0.00000E+00 0.00000E+00 0.00000E+00
 -1        29 0.00000E+00 0.00000E+00 0.00000E+00
 -1        30 0.00000E+00 0.00000E+00 0.00000E+00
 -1        31 0.00000E+00 0.00000E+00 0.00000E+00
 -1        32 0.00000E+00 0.00000E+00 0.00000E+00
 -1        44 1.25131E-04-1.27055E-03 1.85407E-04
 -1        45 2.98612E-05-9.87793E-04 2.98975E-04
 -1        46-3.38723E-05-7.24973E-04 3.42093E-04
 -1        47 4.21294E-05-2.93806E-04 2.25144E-04
 -1        48-4.21140E-05-2.93799E-04 2.25124E-04
 -1        49 3.38738E-05-7.25014E-04 3.42074E-04
 -1        50-2.98086E-05-9.87728E-04 2.98951E-04
 -1        51-1.25308E-04-1.27054E-03 1.85549E-04
 -1        74-1.19123E-04-1.27590E-03-1.85378E-04
 -1        75-2.65349E-05-9.91140E-04-2.98786E-04
 -1        76 3.25606E-05-7.23546E-04-3.42092E-04
 -1        77-4.30783E-05-2.92885E-04-2.25180E-04
 -1        89 1.19193E-04-1.27606E-03-1.85501E-04
 -1        90 2.65204E-05-9.91120E-04-2.98845E-04
 -1        91-3.24859E-05-7.23559E-04-3.42078E-04
 -1        92 4.30891E-05-2.92879E-04-2.25159E-04
 -1        98 0.00000E+00 0.00000E+00 0.00000E+00
 -1        99 0.00000E+00 0.00000E+00 0.00000E+00
 -1       100 0.00000E+00 0.00000E+00 0.00000E+00
 -1       101 0.00000E+00 0.00000E+00 0.00000E+00
 -1       102 0.00000E+00 0.00000E+00 0.00000E+00
 -1       124-7.38992E-06-1.17360E-03 1.74707E-04
 -1       125 2.39135E-08-1.39981E-03 1.83339E-04
 -1       126 7.35210E-06-1.17358E-03 1.74738E-04
 -1       127-3.16237E-09-1.03167E-03 3.30741E-04
 -1       128 3.43799E-06-7.59458E-04 3.67181E-04
 -1       129 2.15678E-08-7.04616E-04 3.74429E-04
 -1       130-3.42157E-06-7.59445E-04 3.67170E-04
 -1       131 3.85760E-09-2.97416E-04 2.18651E-04
 -1       153-1.01874E-04-1.51785E-03 8.23627E-05
 -1       154 1.11932E-06-1.34745E-03 8.82152E-08
 -1       155 9.97888E-05-1.52262E-03-8.24511E-05
 -1       156 7.77878E-09-1.11466E-03-3.87958E-07
 -1       157 2.04879E-05-6.29199E-04 1.47328E-04
 -1       158-2.39139E-07-6.41948E-04-1.20349E-07
 -1       159-2.00115E-05-6.28045E-04-1.47231E-04
 -1       160 2.99282E-08-2.43872E-04 4.67246E-09
 -1       182-1.86523E-06-1.17155E-03-1.74807E-04
 -1       183-4.88176E-08-1.40209E-03-1.83470E-04
 -1       184 1.86994E-06-1.17159E-03-1.74778E-04
 -1       185 3.99325E-08-1.03135E-03-3.30065E-04
 -1       186 2.22844E-06-7.59907E-04-3.67212E-04
 -1       187-4.73002E-09-7.04429E-04-3.74192E-04
 -1       188-2.20171E-06-7.59922E-04-3.67225E-04
 -1       189 1.03947E-08-2.97500E-04-2.18653E-04
 -1       211-9.97540E-05-1.52268E-03-8.23993E-05
 -1       212-1.15829E-06-1.34734E-03 3.41591E-08
 -1       213 1.01798E-04-1.51776E-03 8.24071E-05
 -1       214 7.77727E-08-1.11468E-03-3.94965E-07
 -1       215 2.00397E-05-6.28032E-04-1.47262E-04
 -1       216 2.29941E-07-6.41918E-04-1.31606E-07
 -1       217-2.04973E-05-6.29210E-04 1.47311E-04
 -1       218-1.57798E-08-2.43874E-04-1.49071E-08
 -1       250 6.07483E-08-1.51339E-03 8.17291E-05
 -1       251 1.62638E-06-9.57498E-04 9.65057E-08
 -1       252 1.05828E-07-1.22179E-03 6.14808E-08
 -1       253-1.54656E-06-9.57550E-04 2.09920E-07
 -1       254 2.26446E-08-1.51021E-03-8.18778E-05
 -1       255 3.30090E-09-1.09053E-03-1.81796E-08
 -1       256 2.94986E-08-6.19881E-04 1.64327E-04
 -1       257-3.40750E-07-7.24583E-04-6.15460E-09
 -1       258 3.49845E-08-6.42627E-04-2.15996E-08
 -1       259 3.74338E-07-7.24598E-04-2.08930E-08
 -1       260 1.62198E-08-6.20732E-04-1.64368E-04
 -1       261-9.73417E-10-2.75942E-04 1.48602E-08
 -3
    1PSTEP                         4           4           1          
  100CL  104 2.00000E-02          81                     1    4           1
 -4  DISP        4    1
 -5  D1          1    2    1    0
 -5  D2          1    2    2    0
 -5  D3          1    2    3    0
 -5  ALL         1    2    0    0    1ALL
 -1         5 0.00000E+00 0.00000E+00 0.00000E+00
 -1         6 0.00000E+00 0.00000E+00 0.00000E+00
 -1         7 0.00000E+00 0.00000E+00 0.00000E+00
 -1         8 0.00000E+00 0.00000E+00 0.00000E+00
 -1        21 0.00000E+00 0.00000E+00 0.00000E+00
 -1        22 0.00000E+00 0.00000E+00 0.00000E+00
 -1        23 0.00000E+00 0.00000E+00 0.00000E+00
 -1        24 0.00000E+00 0.00000E+00 0.00000E+00
 -1        25 0.00000E+00 0.00000E+00 0.00000E+00
 -1        26 0.00000E+00 0.00000E+00 0.00000E+00
 -1        27 0.00000E+00 0.00000E+00 0.00000E+00
 -1        28 0.00000E+00 0.00000E+00 0.00000E+00
 -1        29 0.00000E+00 0.00000E+00 0.00000E+00
 -1        30 0.00000E+00 0.00000E+00 0.00000E+00
 -1        31 0.00000E+00 0.00000E+00 0.00000E+00
 -1        32 0.00000E+00 0.00000E+00 0.00000E+00
 -1        44-9.74005E-05 9.85784E-04-1.43948E-04
 -1        45-2.29846E-05 7.66676E-04-2.31956E-04
 -1        46 2.64827E-05 5.62971E-04-2.65401E-04
 -1        47-3.26943E-05 2.28150E-04-1.74831E-04
 -1        48 3.26957E-05 2.28154E-04-1.74839E-04
 -1        49-2.64876E-05 5.62972E-04-2.65412E-04
 -1        50 2.30045E-05 7.66688E-04-2.31963E-04
 -1        51 9.73872E-05 9.85792E-04-1.43943E-04
 -1        74 9.58222E-05 9.87254E-04 1.43977E-04
 -1        75 2.20283E-05 7.67563E-04 2.31991E-04
 -1        76-2.59684E-05 5.62520E-04 2.65368E-04
 -1        77 3.29774E-05 2.27895E-04 1.74823E-04
 -1        89-9.58172E-05 9.87256E-04 1.43984E-04
 -1        90-2.20000E-05 7.67579E-04 2.31990E-04
 -1        91 2.59779E-05 5.62520E-04 2.65364E-04
 -1        92-3.29717E-05 2.27897E-04 1.74820E-04
 -1        98 0.00000E+00 0.00000E+00 0.00000E+00
 -1        99 0.00000E+00 0.00000E+00 0.00000E+00
 -1       100 0.00000E+00 0.00000E+00 0.00000E+00
 -1       101 0.00000E+00 0.00000E+00 0.00000E+00
 -1       102 0.00000E+00 0.00000E+00 0.00000E+00
 -1       124 4.01576E-06 9.10940E-04-1.35734E-04
 -1       125 1.93578E-08 1.08681E-03-1.42373E-04
 -1       126-4.00322E-06 9.10930E-04-1.35706E-04
 -1       127-2.94319E-09 8.00966E-04-2.56597E-04
 -1       128-2.34518E-06 5.89394E-04-2.84967E-04
 -1       129 6.85527E-09 5.46623E-04-2.90625E-04
 -1       130 2.34963E-06 5.89394E-04-2.84967E-04
 -1       131-7.34139E-10 2.30823E-04-1.69674E-04
 -1       153 7.95524E-05 1.18045E-03-6.39926E-05
 -1       154-3.65003E-07 1.04753E-03-1.85723E-09
 -1       155-7.89632E-05 1.18116E-03 6.39549E-05
 -1       156 5.54737E-08 8.64985E-04 1.01854E-07
 -1       157-1.60077E-05 4.88294E-04-1.14247E-04
 -1       158 1.25551E-08 4.98636E-04 4.15640E-08
 -1       159 1.58747E-05 4.88089E-04 1.14240E-04
 -1       160-3.44604E-09 1.89257E-04 4.92709E-09
 -1       182 3.28763E-06 9.10347E-04 1.35678E-04
 -1       183 1.43371E-08 1.08733E-03 1.42456E-04
 -1       184-3.26921E-06 9.10345E-04 1.35678E-04
 -1       185 1.05232E-08 8.00901E-04 2.56336E-04
 -1       186-2.11088E-06 5.89513E-04 2.84991E-04
 -1       187 8.70845E-09 5.46594E-04 2.90565E-04
 -1       188 2.12415E-06 5.89514E-04 2.84991E-04
 -1       189 2.22006E-09 2.30839E-04 1.69674E-04
 -1       211 7.89675E-05 1.18117E-03 6.39715E-05
 -1       212 3.76599E-07 1.04756E-03-2.70564E-09
 -1       213-7.95515E-05 1.18047E-03-6.40040E-05
 -1       214-3.85664E-08 8.64985E-04 9.60513E-08
 -1       215-1.58653E-05 4.88095E-04 1.14231E-04
 -1       216-4.57737E-09 4.98646E-04 3.50686E-08
 -1       217 1.60088E-05 4.88300E-04-1.14253E-04
 -1       218 7.11275E-09 1.89259E-04 1.00348E-09
 -1       250 1.73716E-08 1.17205E-03-6.34510E-05
 -1       251-4.95332E-08 7.43245E-04-4.15999E-08
 -1       252 1.23878E-08 9.47508E-04-9.35707E-08
 -1       253 6.87018E-08 7.43227E-04-3.59652E-08
 -1       254 1.35874E-08 1.17166E-03 6.35650E-05
 -1       255 6.14788E-09 8.46744E-04 9.03547E-09
 -1       256 5.89047E-09 4.81368E-04-1.27643E-04
 -1       257 5.16072E-08 5.62526E-04-2.21404E-09
 -1       258 5.49108E-09 4.98458E-04 1.33121E-08
 -1       259-4.24248E-08 5.62521E-04-1.91797E-10
 -1       260 7.15852E-09 4.81496E-04 1.27631E-04
 -1       261 1.44185E-09 2.14172E-04 5.14731E-09
 -3
    1PSTEP                         5           5           1          
  100CL  105 2.50000E-02          81                     1    5           1
 -4  DISP        4    1
 -5  D1          1    2    1    0
 -5  D2          1    2    2    0
 -5  D3          1    2    3    0
 -5  ALL         1    2    0    0    1ALL
 -1         5 0.00000E+00 0.00000E+00 0.00000E+00
 -1         6 0.00000E+00 0.00000E+00 0.00000E+00
 -1         7 0.00000E+00 0.00000E+00 0.00000E+00
 -1         8 0.00000E+00 0.00000E+00 0.00000E+00
 -1        21 0.00000E+00 0.00000E+00 0.00000E+00
 -1        22 0.00000E+00 0.00000E+00 0.00000E+00
 -1        23 0.00000E+00 0.00000E+00 0.00000E+00
 -1        24 0.00000E+00 0.00000E+00 0.00000E+00
 -1        25 0.00000E+00 0.00000E+00 0.00000E+00
 -1        26 0.00000E+00 0.00000E+00 0.00000E+00
 -1        27 0.00000E+00 0.00000E+00 0.00000E+00
 -1        28 0.00000E+00 0.00000E+00 0.00000E+00
 -1        29 0.00000E+00 0.00000E+00 0.00000E+00
 -1        30 0.00000E+00 0.00000E+00 0.00000E+00
 -1        31 0.00000E+00 0.00000E+00 0.00000E+00
 -1        32 0.00000E+00 0.00000E+00 0.00000E+00
 -1        44 7.32521E-05-7.44852E-04 1.08651E-04
 -1        45 1.73634E-05-5.79178E-04 1.75250E-04
 -1        46-1.98713E-05-4.24786E-04 2.00452E-04
 -1        47 2.47225E-05-1.72160E-04 1.31980E-04
 -1        48-2.47211E-05-1.72153E-04 1.31966E-04
 -1        49 1.98433E-05-4.24791E-04 2.00438E-04
 -1        50-1.73302E-05-5.79156E-04 1.75265E-04
 -1        51-7.33980E-05-7.44841E-04 1.08755E-04
 -1        74-7.07769E-05-7.47289E-04-1.08671E-04
 -1        75-1.59116E-05-5.80540E-04-1.75280E-04
 -1        76 1.92020E-05-4.24182E-04-2.00463E-04
 -1        77-2.51219E-05-1.71772E-04-1.31976E-04
 -1        89 7.09210E-05-7.47286E-04-1.08768E-04
 -1        90 1.59019E-05-5.80521E-04-1.75305E-04
 -1        91-1.91641E-05-4.24184E-04-2.00456E-04
 -1        92 2.51256E-05-1.71767E-04-1.31967E-04
 -1        98 0.00000E+00 0.00000E+00 0.00000E+00
 -1        99 0.00000E+00 0.00000E+00 0.00000E+00
 -1       100 0.00000E+00 0.00000E+00 0.00000E+00
 -1       101 0.00000E+00 0.00000E+00 0.00000E+00
 -1       102 0.00000E+00 0.00000E+00 0.00000E+00
 -1       124-3.94532E-06-6.87767E-04 1.02436E-04
 -1       125 1.40624E-08-8.20616E-04 1.07541E-04
 -1       126 3.89452E-06-6.87780E-04 1.02476E-04
 -1       127-1.83965E-08-6.04652E-04 1.93775E-04
 -1       128 1.93349E-06-4.45079E-04 2.15226E-04
 -1       129 1.34125E-08-4.12937E-04 2.19497E-04
 -1       130-1.93490E-06-4.45076E-04 2.15214E-04
 -1       131-2.43434E-09-1.74281E-04 1.28144E-04
 -1       153-5.99305E-05-8.90481E-04 4.82808E-05
 -1       154 5.29481E-07-7.90841E-04 1.08683E-08
 -1       155 5.90248E-05-8.92347E-04-4.83048E-05
 -1       156-2.11439E-08-6.53299E-04-1.30604E-07
 -1       157 1.20734E-05-3.68698E-04 8.63214E-05
 -1       158-6.74810E-08-3.76309E-04-5.41405E-08
 -1       159-1.18773E-05-3.68261E-04-8.63030E-05
 -1       160 4.21535E-09-1.42853E-04-6.44309E-09
 -1       182-2.08375E-06-6.86991E-04-1.02491E-04
 -1       183-9.92583E-10-8.21455E-04-1.07587E-04
 -1       184 2.15061E-06-6.86979E-04-1.02460E-04
 -1       185 2.59954E-08-6.04540E-04-1.93486E-04
 -1       186 1.49252E-06-4.45255E-04-2.15238E-04
 -1       187-5.73631E-09-4.12824E-04-2.19385E-04
 -1       188-1.47946E-06-4.45257E-04-2.15251E-04
 -1       189 4.39271E-09-1.74313E-04-1.28133E-04
 -1       211-5.89470E-05-8.92321E-04-4.83396E-05
 -1       212-5.30826E-07-7.90790E-04 9.60086E-09
 -1       213 5.98521E-05-8.90447E-04 4.83250E-05
 -1       214 3.75020E-08-6.53284E-04-1.33216E-07
 -1       215 1.18956E-05-3.68258E-04-8.63061E-05
 -1       216 6.91092E-08-3.76302E-04-5.84693E-08
 -1       217-1.20853E-05-3.68697E-04 8.63149E-05
 -1       218-1.34769E-09-1.42851E-04-1.03625E-08
 -1       250 1.55137E-08-8.86427E-04 4.79630E-05
 -1       251 4.44483E-07-5.61127E-04 4.50348E-09
 -1       252 1.46499E-08-7.15845E-04-1.86296E-08
 -1       253-4.30672E-07-5.61146E-04 1.71892E-08
 -1       254 5.55331E-09-8.85406E-04-4.80019E-05
 -1       255 2.67397E-09-6.39372E-04-1.18338E-08
 -1       256 9.54935E-09-3.63293E-04 9.63445E-05
 -1       257-1.14575E-07-4.24715E-04 4.91407E-09
 -1       258 5.81060E-09-3.76408E-04 2.02132E-09
 -1       259 1.21382E-07-4.24721E-04 4.27588E-09
 -1       260 2.06245E-10-3.63552E-04-9.63592E-05
 -1       261 5.06049E-10-1.61687E-04 6.89033E-10
 -3
    1PSTEP                         6           6           1          
  100CL  106 3.00000E-02          81                     1    6           1
 -4  DISP        4    1
 -5  D1          1    2    1    0
 -5  D2          1    2    2    0
 -5  D3          1    2    3    0
 -5  ALL         1    2    0    0    1ALL
 -1         5 0.00000E+00 0.00000E+00 0.00000E+00
 -1         6 0.00000E+00 0.00000E+00 0.00000E+00
 -1         7 0.00000E+00 0.00000E+00 0.00000E+00
 -1         8 0.00000E+00 0.00000E+00 0.00000E+00
 -1        21 0.00000E+00 0.00000E+00 0.00000E+00
 -1        22 0.00000E+00 0.00000E+00 0.00000E+00
 -1        23 0.00000E+00 0.00000E+00 0.00000E+00
 -1        24 0.00000E+00 0.00000E+00 0.00000E+00
 -1        25 0.00000E+00 0.00000E+00 0.00000E+00
 -1        26 0.00000E+00 0.00000E+00 0.00000E+00
 -1        27 0.00000E+00 0.00000E+00 0.00000E+00
 -1        28 0.00000E+00 0.00000E+00 0.00000E+00
 -1        29 0.00000E+00 0.00000E+00 0.00000E+00
 -1        30 0.00000E+00 0.00000E+00 0.00000E+00
 -1        31 0.00000E+00 0.00000E+00 0.00000E+00
 -1        32 0.00000E+00 0.00000E+00 0.00000E+00
 -1        44-5.13860E-05 5.41562E-04-7.87776E-05
 -1        45-1.17474E-05 4.20705E-04-1.26887E-04
 -1        46 1.40111E-05 3.07519E-04-1.45357E-04
 -1        47-1.81926E-05 1.24492E-04-9.56295E-05