    1C
    1UUSER                                                              
    1UDATE              17.july.2018                                    
    1UTIME              01:30:14                                        
    1UHOST                                                              
    1UPGM               CalculiX                                        
    1UVERSION           Version 2.13                             
    1UCOMPILETIME       jue jun 14 00:40:39 CEST 2018                    
    1UDIR                                                               
    1UDBN                                                               
    1UMAT    1EL                                                        
    2C                            81                                     1
 -1         5 0.00000E+00 0.00000E+00 8.00000E+00
 -1         6 1.00000E+00 0.00000E+00 8.00000E+00
 -1         7 1.00000E+00 1.00000E+00 8.00000E+00
 -1         8 0.00000E+00 1.00000E+00 8.00000E+00
 -1        21 2.50000E-01 0.00000E+00 8.00000E+00
 -1        22 5.00000E-01 0.00000E+00 8.00000E+00
 -1        23 7.50000E-01 0.00000E+00 8.00000E+00
 -1        24 1.00000E+00 2.50000E-01 8.00000E+00
 -1        25 1.00000E+00 5.00000E-01 8.00000E+00
 -1        26 1.00000E+00 7.50000E-01 8.00000E+00
 -1        27 7.50000E-01 1.00000E+00 8.00000E+00
 -1        28 5.00000E-01 1.00000E+00 8.00000E+00
 -1        29 2.50000E-01 1.00000E+00 8.00000E+00
 -1        30 0.00000E+00 7.50000E-01 8.00000E+00
 -1        31 0.00000E+00 5.00000E-01 8.00000E+00
 -1        32 0.00000E+00 2.50000E-01 8.00000E+00
 -1        44 1.00000E+00 0.00000E+00 6.00000E+00
 -1        45 1.00000E+00 0.00000E+00 6.50000E+00
 -1        46 1.00000E+00 0.00000E+00 7.00000E+00
 -1        47 1.00000E+00 0.00000E+00 7.50000E+00
 -1        48 0.00000E+00 0.00000E+00 7.50000E+00
 -1        49 0.00000E+00 0.00000E+00 7.00000E+00
 -1        50 0.00000E+00 0.00000E+00 6.50000E+00
 -1        51 0.00000E+00 0.00000E+00 6.00000E+00
 -1        74 1.00000E+00 1.00000E+00 6.00000E+00
 -1        75 1.00000E+00 1.00000E+00 6.50000E+00
 -1        76 1.00000E+00 1.00000E+00 7.00000E+00
 -1        77 1.00000E+00 1.00000E+00 7.50000E+00
 -1        89 0.00000E+00 1.00000E+00 6.00000E+00
 -1        90 0.00000E+00 1.00000E+00 6.50000E+00
 -1        91 0.00000E+00 1.00000E+00 7.00000E+00
 -1        92 0.00000E+00 1.00000E+00 7.50000E+00
 -1        98 5.00000E-01 2.50000E-01 8.00000E+00
 -1        99 2.50000E-01 5.00000E-01 8.00000E+00
 -1       100 5.00000E-01 5.00000E-01 8.00000E+00
 -1       101 7.50000E-01 5.00000E-01 8.00000E+00
 -1       102 5.00000E-01 7.50000E-01 8.00000E+00
 -1       124 2.50000E-01 0.00000E+00 6.00000E+00
 -1       125 5.00000E-01 0.00000E+00 6.00000E+00
 -1       126 7.50000E-01 0.00000E+00 6.00000E+00
 -1       127 5.00000E-01 0.00000E+00 6.50000E+00
 -1       128 2.50000E-01 0.00000E+00 7.00000E+00
 -1       129 5.00000E-01 0.00000E+00 7.00000E+00
 -1       130 7.50000E-01 0.00000E+00 7.00000E+00
 -1       131 5.00000E-01 0.00000E+00 7.50000E+00
 -1       153 1.00000E+00 2.50000E-01 6.00000E+00
 -1       154 1.00000E+00 5.00000E-01 6.00000E+00
 -1       155 1.00000E+00 7.50000E-01 6.00000E+00
 -1       156 1.00000E+00 5.00000E-01 6.50000E+00
 -1       157 1.00000E+00 2.50000E-01 7.00000E+00
 -1       158 1.00000E+00 5.00000E-01 7.00000E+00
 -1       159 1.00000E+00 7.50000E-01 7.00000E+00
 -1       160 1.00000E+00 5.00000E-01 7.50000E+00
 -1       182 7.50000E-01 1.00000E+00 6.00000E+00
 -1       183 5.00000E-01 1.00000E+00 6.00000E+00
 -1       184 2.50000E-01 1.00000E+00 6.00000E+00
 -1       185 5.00000E-01 1.00000E+00 6.50000E+00
 -1       186 7.50000E-01 1.00000E+00 7.00000E+00
 -1       187 5.00000E-01 1.00000E+00 7.00000E+00
 -1       188 2.50000E-01 1.00000E+00 7.00000E+00
 -1       189 5.00000E-01 1.00000E+00 7.50000E+00
 -1       211 0.00000E+00 7.50000E-01 6.00000E+00
 -1       212 0.00000E+00 5.00000E-01 6.00000E+00
 -1       213 0.00000E+00 2.50000E-01 6.00000E+00
 -1       214 0.00000E+00 5.00000E-01 6.50000E+00
 -1       215 0.00000E+00 7.50000E-01 7.00000E+00
 -1       216 0.00000E+00 5.00000E-01 7.00000E+00
 -1       217 0.00000E+00 2.50000E-01 7.00000E+00
 -1       218 0.00000E+00 5.00000E-01 7.50000E+00
 -1       250 5.00000E-01 2.50000E-01 6.00000E+00
 -1       251 2.50000E-01 5.00000E-01 6.00000E+00
 -1       252 5.00000E-01 5.00000E-01 6.00000E+00
 -1       253 7.50000E-01 5.00000E-01 6.00000E+00
 -1       254 5.00000E-01 7.50000E-01 6.00000E+00
 -1       255 5.00000E-01 5.00000E-01 6.50000E+00
 -1       256 5.00000E-01 2.50000E-01 7.00000E+00
 -1       257 2.50000E-01 5.00000E-01 7.00000E+00
 -1       258 5.00000E-01 5.00000E-01 7.00000E+00
 -1       259 7.50000E-01 5.00000E-01 7.00000E+00
 -1       260 5.00000E-01 7.50000E-01 7.00000E+00
 -1       261 5.00000E-01 5.00000E-01 7.50000E+00
 -3
    3C                             8                                     1
 -1        25    4    0    1
 -2        51       125       252       212        49       129       258       216       124       250
 -2       251       213        50       127       255       214       128       256       257       217
 -1        26    4    0    1
 -2       125        44       154       252       129        46       158       258       126       153
 -2       253       250       127        45       156       255       130       157       259       256
 -1        27    4    0    1
 -2       212       252       183        89       216       258       187        91       251       254
 -2       184       211       214       255       185        90       257       260       188       215
 -1        28    4    0    1
 -2       252       154        74       183       258       158        76       187       253       155
 -2       182       254       255       156        75       185       259       159       186       260
 -1        29    4    0    1
 -2        49       129       258       216         5        22       100        31       128       256
 -2       257       217        48       131       261       218        21        98        99        32
 -1        30    4    0    1
 -2       129        46       158       258        22         6        25       100       130       157
 -2       259       256       131        47       160       261        23        24       101        98
 -1        31    4    0    1
 -2       216       258       187        91        31       100        28         8       257       260
 -2       188       215       218       261       189        92        99       102        29        30
 -1        32    4    0    1
 -2       258       158        76       187       100        25         7        28       259       159
 -2       186       260       261       160        77       189       101        26        27       102
 -3
    1PSTEP                         1           1           1          
  100CL  101 5.00000E-03          81                     1    1           1
 -4  DISP        4    1
 -5  D1          1    2    1    0
 -5  D2          1    2    2    0
 -5  D3          1    2    3    0
 -5  ALL         1    2    0    0    1ALL
 -1         5 0.00000E+00 0.00000E+00 0.00000E+00
 -1         6 0.00000E+00 0.00000E+00 0.00000E+00
 -1         7 0.00000E+00 0.00000E+00 0.00000E+00
 -1         8 0.00000E+00 0.00000E+00 0.00000E+00
 -1        21 0.00000E+00 0.00000E+00 0.00000E+00
 -1        22 0.00000E+00 0.00000E+00 0.00000E+00
 -1        23 0.00000E+00 0.00000E+00 0.00000E+00
 -1        24 0.00000E+00 0.00000E+00 0.00000E+00
 -1        25 0.00000E+00 0.00000E+00 0.00000E+00
 -1        26 0.00000E+00 0.00000E+00 0.00000E+00
 -1        27 0.00000E+00 0.00000E+00 0.00000E+00
 -1        28 0.00000E+00 0.00000E+00 0.00000E+00
 -1        29 0.00000E+00 0.00000E+00 0.00000E+00
 -1        30 0.00000E+00 0.00000E+00 0.00000E+00
 -1        31 0.00000E+00 0.00000E+00 0.00000E+00
 -1        32 0.00000E+00 0.00000E+00 0.00000E+00
 -1        44-6.03617E-05-3.46627E-03 4.48542E-04
 -1        45 5.67201E-05-2.56244E-03 7.86021E-04
 -1        46-4.76165E-05-1.79533E-03 9.49089E-04
 -1        47 1.31016E-04-6.74895E-04 5.43026E-04
 -1        48-1.31022E-04-6.74895E-04 5.43030E-04
 -1        49 4.76175E-05-1.79532E-03 9.49090E-04
 -1        50-5.67322E-05-2.56244E-03 7.86006E-04
 -1        51 6.04180E-05-3.46623E-03 4.48480E-04
 -1        74 3.20259E-04-4.41431E-03-4.94214E-04
 -1        75 1.91833E-04-2.97323E-03-7.84651E-04
 -1        76-1.10837E-04-1.59684E-03-9.49962E-04
 -1        77-2.08055E-04-5.26346E-04-5.58164E-04
 -1        89-3.20186E-04-4.41437E-03-4.94304E-04
 -1        90-1.91846E-04-2.97323E-03-7.84674E-04
 -1        91 1.10840E-04-1.59685E-03-9.49960E-04
 -1        92 2.08049E-04-5.26346E-04-5.58160E-04
 -1        98 0.00000E+00 0.00000E+00 0.00000E+00
 -1        99 0.00000E+00 0.00000E+00 0.00000E+00
 -1       100 0.00000E+00 0.00000E+00 0.00000E+00
 -1       101 0.00000E+00 0.00000E+00 0.00000E+00
 -1       102 0.00000E+00 0.00000E+00 0.00000E+00
 -1       124 1.48381E-04-2.96610E-03 4.29348E-04
 -1       125-1.80075E-09-3.58876E-03 4.49074E-04
 -1       126-1.48357E-04-2.96611E-03 4.29353E-04
 -1       127 6.54624E-09-2.56222E-03 9.03514E-04
 -1       128-8.87671E-06-1.95276E-03 9.48152E-04
 -1       129-9.70201E-09-1.81467E-03 9.41460E-04
 -1       130 8.86753E-06-1.95277E-03 9.48157E-04
 -1       131-2.22568E-09-7.36453E-04 5.56363E-04
 -1       153 7.03609E-05-3.63559E-03 1.90953E-04
 -1       154-1.20180E-04-2.50298E-03-2.03761E-05
 -1       155-6.54425E-05-3.88892E-03-2.37904E-04
 -1       156-1.20468E-04-2.78904E-03-6.45022E-05
 -1       157-2.05843E-05-1.50903E-03 3.92375E-04
 -1       158 8.85398E-05-1.56706E-03-2.95370E-05
 -1       159 4.68047E-05-1.47551E-03-4.11070E-04
 -1       160 3.98823E-05-6.56538E-04 4.85271E-06
 -1       182 1.14356E-04-2.56161E-03-4.71035E-04
 -1       183 3.48483E-09-4.35514E-03-4.75968E-04
 -1       184-1.14320E-04-2.56163E-03-4.71053E-04
 -1       185 5.36021E-09-2.83306E-03-8.73354E-04
 -1       186-4.40469E-05-2.16242E-03-9.82621E-04
 -1       187-9.14517E-09-1.83171E-03-9.63696E-04
 -1       188 4.40391E-05-2.16242E-03-9.82626E-04
 -1       189-2.23136E-09-7.19868E-04-5.64530E-04
 -1       211 6.55541E-05-3.88894E-03-2.37976E-04
 -1       212 1.20322E-04-2.50299E-03-2.04671E-05
 -1       213-7.02592E-05-3.63558E-03 1.90894E-04
 -1       214 1.20436E-04-2.78904E-03-6.45292E-05
 -1       215-4.67937E-05-1.47551E-03-4.11072E-04
 -1       216-8.85190E-05-1.56707E-03-2.95334E-05
 -1       217 2.05950E-05-1.50902E-03 3.92373E-04
 -1       218-3.98899E-05-6.56538E-04 4.86544E-06
 -1       250-1.06594E-08-4.08227E-03 1.75061E-04
 -1       251 3.04221E-05-2.57208E-03-1.00521E-05
 -1       252-1.73542E-08-3.12271E-03-1.52469E-05
 -1       253-3.03750E-05-2.57208E-03-1.00823E-05
 -1       254-6.85354E-09-4.41295E-03-2.53770E-04
 -1       255 1.57160E-08-2.59923E-03-3.20473E-05
 -1       256-1.40683E-08-1.60715E-03 3.95559E-04
 -1       257-4.11954E-05-1.74923E-03-1.20171E-05
 -1       258-1.89500E-08-1.79023E-03-1.45519E-05
 -1       259 4.11870E-05-1.74923E-03-1.20017E-05
 -1       260-1.41146E-08-1.62233E-03-4.18215E-04
 -1       261 2.64823E-11-7.17058E-04-1.96710E-06
 -3
    1PSTEP                         2           2           1          
  100CL  102 1.00000E-02          81                     1    2           1
 -4  DISP        4    1
 -5  D1          1    2    1    0
 -5  D2          1    2    2    0
 -5  D3          1    2    3    0
 -5  ALL         1    2    0    0    1ALL
 -1         5 0.00000E+00 0.00000E+00 0.00000E+00
 -1         6 0.00000E+00 0.00000E+00 0.00000E+00
 -1         7 0.00000E+00 0.00000E+00 0.00000E+00
 -1         8 0.00000E+00 0.00000E+00 0.00000E+00
 -1        21 0.00000E+00 0.00000E+00 0.00000E+00
 -1        22 0.00000E+00 0.00000E+00 0.00000E+00
 -1        23 0.00000E+00 0.00000E+00 0.00000E+00
 -1        24 0.00000E+00 0.00000E+00 0.00000E+00
 -1        25 0.00000E+00 0.00000E+00 0.00000E+00
 -1        26 0.00000E+00 0.00000E+00 0.00000E+00
 -1        27 0.00000E+00 0.00000E+00 0.00000E+00
 -1        28 0.00000E+00 0.00000E+00 0.00000E+00
 -1        29 0.00000E+00 0.00000E+00 0.00000E+00
 -1        30 0.00000E+00 0.00000E+00 0.00000E+00
 -1        31 0.00000E+00 0.00000E+00 0.00000E+00
 -1        32 0.00000E+00 0.00000E+00 0.00000E+00
 -1        44-1.60522E-04 1.59929E-03-2.33974E-04
 -1        45-4.02527E-05 1.24391E-03-3.77364E-04
 -1        46 4.39513E-05 9.16644E-04-4.32245E-04
 -1        47-5.25250E-05 3.71426E-04-2.84040E-04
 -1        48 5.25402E-05 3.71430E-04-2.84077E-04
 -1        49-4.39333E-05 9.16662E-04-4.32307E-04
 -1        50 4.04240E-05 1.24386E-03-3.77368E-04
 -1        51 1.60655E-04 1.59922E-03-2.33995E-04
 -1        74 1.39637E-04 1.62260E-03 2.34243E-04
 -1        75 2.81236E-05 1.25669E-03 3.77527E-04
 -1        76-3.79629E-05 9.10687E-04 4.32348E-04
 -1        77 5.60677E-05 3.67662E-04 2.84130E-04
 -1        89-1.39459E-04 1.62270E-03 2.34186E-04
 -1        90-2.79835E-05 1.25668E-03 3.77490E-04
 -1        91 3.79582E-05 9.10673E-04 4.32295E-04
 -1        92-5.60574E-05 3.67645E-04 2.84089E-04
 -1        98 0.00000E+00 0.00000E+00 0.00000E+00
 -1        99 0.00000E+00 0.00000E+00 0.00000E+00
 -1       100 0.00000E+00 0.00000E+00 0.00000E+00
 -1       101 0.00000E+00 0.00000E+00 0.00000E+00
 -1       102 0.00000E+00 0.00000E+00 0.00000E+00
 -1       124 1.11828E-05 1.48358E-03-2.20572E-04
 -1       125 1.26009E-07 1.76471E-03-2.31400E-04
 -1       126-1.10054E-05 1.48356E-03-2.20476E-04
 -1       127 4.00746E-08 1.30198E-03-4.18504E-04
 -1       128-4.94345E-06 9.58364E-04-4.63534E-04
 -1       129 4.49703E-08 8.89940E-04-4.72797E-04
 -1       130 5.00159E-06 9.58364E-04-4.63525E-04
 -1       131 2.64333E-09 3.75400E-04-2.76055E-04
 -1       153 1.28457E-04 1.91178E-03-1.03898E-04
 -1       154-3.28709E-06 1.69657E-03 6.35612E-08
 -1       155-1.21278E-04 1.92603E-03 1.04145E-04
 -1       156 7.86598E-07 1.40741E-03 1.51623E-06
 -1       157-2.57871E-05 7.94486E-04-1.86054E-04
 -1       158 1.65125E-07 8.09581E-04 5.83940E-07
 -1       159 2.41578E-05 7.91120E-04 1.86058E-04
 -1       160-2.08657E-07 3.07940E-04 2.08447E-08
 -1       182-1.97959E-06 1.47524E-03 2.20734E-04
 -1       183 1.57723E-07 1.77461E-03 2.31647E-04
 -1       184 2.20391E-06 1.47524E-03 2.20670E-04
 -1       185 2.82956E-08 1.30224E-03 4.15994E-04
 -1       186-1.52600E-06 9.60762E-04 4.63853E-04
 -1       187 3.70021E-08 8.89405E-04 4.72024E-04
 -1       188 1.56552E-06 9.60765E-04 4.63834E-04
 -1       189-2.74064E-09 3.75607E-04 2.76036E-04
 -1       211 1.21448E-04 1.92608E-03 1.04027E-04
 -1       212 3.48510E-06 1.69650E-03 7.47023E-08
 -1       213-1.28332E-04 1.91169E-03-1.03950E-04
 -1       214-7.14957E-07 1.40742E-03 1.45838E-06
 -1       215-2.41188E-05 7.91093E-04 1.86029E-04
 -1       216-9.14899E-08 8.09553E-04 5.35387E-07
 -1       217 2.58413E-05 7.94485E-04-1.86099E-04
 -1       218 2.22644E-07 3.07938E-04 5.12367E-09
 -1       250 7.98507E-08 1.91332E-03-1.02853E-04
 -1       251-3.27004E-06 1.20877E-03-8.48983E-08
 -1       252 1.90070E-08 1.54449E-03 1.35784E-07
 -1       253 3.39620E-06 1.20881E-03-1.34240E-07
 -1       254 9.83160E-08 1.90795E-03 1.03740E-04
 -1       255 5.67365E-08 1.37621E-03 1.31966E-07
 -1       256 2.61674E-08 7.82308E-04-2.07320E-04
 -1       257 1.06713E-06 9.14314E-04 1.44669E-08
 -1       258 9.64605E-09 8.11733E-04 6.70218E-08
 -1       259-1.02496E-06 9.14326E-04 4.89482E-08
 -1       260 2.18757E-08 7.84255E-04 2.07466E-04
 -1       261 1.10534E-08 3.48203E-04 8.68170E-09
 -3
    1PSTEP                         3           3           1          
  100CL  103 1.50000E-02          81                     1    3           1
 -4  DISP        4    1
 -5  D1          1    2    1    0
 -5  D2          1    2    2    0
 -5  D3          1    2    3    0
 -5  ALL         1    2    0    0    1ALL
 -1         5 0.00000E+00 0.00000E+00 0.00000E+00
 -1         6 0.00000E+00 0.00000E+00 0.00000E+00
 -1         7 0.00000E+00 0.00000E+00 0.00000E+00
 -1         8 0.00000E+00 0.00000E+00 0.00000E+00
 -1        21 0.00000E+00 0.00000E+00 0.00000E+00
 -1        22 0.00000E+00 0.00000E+00 0.00000E+00
 -1        23 0.00000E+00 0.00000E+00 0.00000E+00
 -1        24 0.00000E+00 0.00000E+00 0.00000E+00
 -1        25 0.00000E+00 0.00000E+00 0.00000E+00
 -1        26 0.00000E+00 0.00000E+00 0.00000E+00
 -1        27 0.00000E+00 0.00000E+00 0.00000E+00
 -1        28 0.00000E+00 0.00000E+00 0.00000E+00
 -1        29 0.00000E+00 0.00000E+00 0.00000E+00
 -1        30 0.00000E+00 0.00000E+00 0.00000E+00
 -1        31 0.00000E+00 0.00000E+00 0.00000E+00
 -1        32 0.00000E+00 0.00000E+00 0.00000E+00
 -1        44 1.27731E-04-1.26787E-03 1.85734E-04
 -1        45 3.15534E-05-9.86375E-04 2.99279E-04
 -1        46-3.47096E-05-7.26513E-04 3.42487E-04
 -1        47 4.17326E-05-2.94444E-04 2.25294E-04
 -1        48-4.17206E-05-2.94416E-04 2.25240E-04
 -1        49 3.47384E-05-7.26479E-04 3.42413E-04
 -1        50-3.13246E-05-9.86387E-04 2.99192E-04
 -1        51-1.27330E-04-1.26802E-03 1.85588E-04
 -1        74-1.14860E-04-1.28025E-03-1.85656E-04
 -1        75-2.42879E-05-9.93311E-04-2.99256E-04
 -1        76 3.13529E-05-7.23204E-04-3.42467E-04
 -1        77-4.37157E-05-2.92458E-04-2.25248E-04
 -1        89 1.15253E-04-1.28013E-03-1.85831E-04
 -1        90 2.45627E-05-9.93242E-04-2.99353E-04
 -1        91-3.13055E-05-7.23223E-04-3.42527E-04
 -1        92 4.37402E-05-2.92475E-04-2.25296E-04
 -1        98 0.00000E+00 0.00000E+00 0.00000E+00
 -1        99 0.00000E+00 0.00000E+00 0.00000E+00
 -1       100 0.00000E+00 0.00000E+00 0.00000E+00
 -1       101 0.00000E+00 0.00000E+00 0.00000E+00
 -1       102 0.00000E+00 0.00000E+00 0.00000E+00
 -1       124-7.88821E-06-1.17565E-03 1.74937E-04
 -1       125 2.45996E-07-1.39920E-03 1.83660E-04
 -1       126 8.29421E-06-1.17566E-03 1.75019E-04
 -1       127 7.30081E-08-1.03224E-03 3.31449E-04
 -1       128 3.75741E-06-7.59603E-04 3.67452E-04
 -1       129 5.26868E-08-7.05145E-04 3.74844E-04
 -1       130-3.68208E-06-7.59603E-04 3.67485E-04
 -1       131-2.10916E-09-2.97560E-04 2.18817E-04
 -1       153-1.02388E-04-1.51769E-03 8.25579E-05
 -1       154 2.60707E-06-1.34808E-03 2.48804E-08
 -1       155 9.82481E-05-1.52576E-03-8.24656E-05
 -1       156-4.42755E-08-1.11556E-03-6.77107E-07
 -1       157 2.06560E-05-6.29742E-04 1.47500E-04
 -1       158-2.56954E-07-6.41985E-04-2.14706E-07
 -1       159-1.96036E-05-6.27746E-04-1.47348E-04
 -1       160 3.14471E-08-2.43922E-04-1.22392E-08
 -1       182 9.74603E-08-1.17164E-03-1.75037E-04
 -1       183 2.69162E-07-1.40356E-03-1.83713E-04
 -1       184 3.29762E-07-1.17167E-03-1.75138E-04
 -1       185 8.53321E-08-1.03166E-03-3.30028E-04
 -1       186 1.76938E-06-7.60548E-04-3.67551E-04
 -1       187 7.20040E-08-7.04782E-04-3.74310E-04
 -1       188-1.66584E-06-7.60539E-04-3.67574E-04
 -1       189 3.53435E-09-2.97710E-04-2.18769E-04
 -1       211-9.79476E-05-1.52562E-03-8.25812E-05
 -1       212-2.27739E-06-1.34805E-03-7.25362E-08
 -1       213 1.02701E-04-1.51781E-03 8.23836E-05
 -1       214 1.95962E-07-1.11556E-03-8.02077E-07
 -1       215 1.96994E-05-6.27758E-04-1.47431E-04
 -1       216 3.74134E-07-6.41965E-04-3.04472E-07
 -1       217-2.05703E-05-6.29702E-04 1.47429E-04
 -1       218-5.07375E-09-2.43917E-04-3.83906E-08
 -1       250 1.54092E-07-1.51466E-03 8.18794E-05
 -1       251 1.87124E-06-9.57862E-04 9.03059E-08
 -1       252 3.64056E-08-1.22380E-03-8.60026E-08
 -1       253-1.64900E-06-9.57878E-04 1.10996E-07
 -1       254 1.68414E-07-1.51102E-03-8.21324E-05
 -1       255 9.74241E-08-1.09143E-03-4.78132E-09
 -1       256 3.50551E-08-6.20100E-04 1.64447E-04
 -1       257-4.53122E-07-7.24939E-04-1.65045E-08
 -1       258 2.17422E-08-6.42771E-04 4.69891E-09
 -1       259 5.24640E-07-7.24949E-04 3.49900E-08
 -1       260 4.41206E-08-6.21173E-04-1.64502E-04
 -1       261 1.91993E-08-2.75895E-04 8.54724E-09
 -3
    1PSTEP                         4           4           1          
  100CL  104 2.00000E-02          81                     1    4           1
 -4  DISP        4    1
 -5  D1          1    2    1    0
 -5  D2          1    2    2    0
 -5  D3          1    2    3    0
 -5  ALL         1    2    0    0    1ALL
 -1         5 0.00000E+00 0.00000E+00 0.00000E+00
 -1         6 0.00000E+00 0.00000E+00 0.00000E+00
 -1         7 0.00000E+00 0.00000E+00 0.00000E+00
 -1         8 0.00000E+00 0.00000E+00 0.00000E+00
 -1        21 0.00000E+00 0.00000E+00 0.00000E+00
 -1        22 0.00000E+00 0.00000E+00 0.00000E+00
 -1        23 0.00000E+00 0.00000E+00 0.00000E+00
 -1        24 0.00000E+00 0.00000E+00 0.00000E+00
 -1        25 0.00000E+00 0.00000E+00 0.00000E+00
 -1        26 0.00000E+00 0.00000E+00 0.00000E+00
 -1        27 0.00000E+00 0.00000E+00 0.00000E+00
 -1        28 0.00000E+00 0.00000E+00 0.00000E+00
 -1        29 0.00000E+00 0.00000E+00 0.00000E+00
 -1        30 0.00000E+00 0.00000E+00 0.00000E+00
 -1        31 0.00000E+00 0.00000E+00 0.00000E+00
 -1        32 0.00000E+00 0.00000E+00 0.00000E+00
 -1        44-9.21337E-05 9.90252E-04-1.43907E-04
 -1        45-2.12444E-05 7.68747E-04-2.31795E-04
 -1        46 2.52146E-05 5.61463E-04-2.65759E-04
 -1        47-3.33638E-05 2.27231E-04-1.74629E-04
 -1        48 3.33548E-05 2.27230E-04-1.74623E-04
 -1        49-2.52106E-05 5.61488E-04-2.65759E-04
 -1        50 2.11975E-05 7.68743E-04-2.31794E-04
 -1        51 9.21533E-05 9.90355E-04-1.43986E-04
 -1        74 9.05588E-05 9.92035E-04 1.43947E-04
 -1        75 2.02823E-05 7.69636E-04 2.31853E-04
 -1        76-2.47782E-05 5.61088E-04 2.65763E-04
 -1        77 3.36164E-05 2.26967E-04 1.74614E-04
 -1        89-9.05282E-05 9.91929E-04 1.43861E-04
 -1        90-2.02973E-05 7.69655E-04 2.31850E-04
 -1        91 2.47851E-05 5.61073E-04 2.65750E-04
 -1        92-3.36198E-05 2.26974E-04 1.74613E-04
 -1        98 0.00000E+00 0.00000E+00 0.00000E+00
 -1        99 0.00000E+00 0.00000E+00 0.00000E+00
 -1       100 0.00000E+00 0.00000E+00 0.00000E+00
 -1       101 0.00000E+00 0.00000E+00 0.00000E+00
 -1       102 0.00000E+00 0.00000E+00 0.00000E+00
 -1       124 3.30393E-06 9.09362E-04-1.35588E-04
 -1       125-4.10195E-08 1.08788E-03-1.42200E-04
 -1       126-3.33312E-06 9.09324E-04-1.35576E-04
 -1       127-4.43296E-09 8.00198E-04-2.56561E-04
 -1       128-2.14520E-06 5.89914E-04-2.84978E-04
 -1       129-1.53347E-08 5.47019E-04-2.90331E-04
 -1       130 2.13098E-06 5.89899E-04-2.84971E-04
 -1       131-2.51030E-09 2.30927E-04-1.69776E-04
 -1       153 7.64711E-05 1.17743E-03-6.38700E-05
 -1       154-3.02092E-07 1.04105E-03 1.76214E-08
 -1       155-7.58643E-05 1.17882E-03 6.38750E-05
 -1       156 2.17045E-08 8.65333E-04 9.76228E-08
 -1       157-1.52841E-05 4.87467E-04-1.14444E-04
 -1       158 3.08104E-08 4.97505E-04 2.58026E-08
 -1       159 1.51556E-05 4.87173E-04 1.14432E-04
 -1       160-7.08342E-09 1.89468E-04-4.66530E-09
 -1       182 2.15028E-06 9.08814E-04 1.35590E-04
 -1       183-8.76270E-09 1.08843E-03 1.42236E-04
 -1       184-2.14202E-06 9.08767E-04 1.35530E-04
 -1       185-5.88208E-09 8.00168E-04 2.56365E-04
 -1       186-1.84984E-06 5.90028E-04 2.84988E-04
 -1       187-2.87763E-09 5.46908E-04 2.90255E-04
 -1       188 1.84942E-06 5.90020E-04 2.84984E-04
 -1       189-3.81560E-10 2.30946E-04 1.69769E-04
 -1       211 7.59077E-05 1.17877E-03 6.38115E-05
 -1       212 3.39092E-07 1.04105E-03 5.01284E-08
 -1       213-7.64341E-05 1.17749E-03-6.38960E-05
 -1       214-4.78976E-08 8.65346E-04 1.02060E-07
 -1       215-1.51551E-05 4.87171E-04 1.14437E-04
 -1       216-3.33147E-08 4.97510E-04 3.12714E-08
 -1       217 1.52830E-05 4.87480E-04-1.14438E-04
 -1       218 1.95762E-09 1.89471E-04 4.57609E-09
 -1       250-2.37674E-08 1.17602E-03-6.33942E-05
 -1       251-3.22650E-07 7.43290E-04 5.40861E-08
 -1       252-1.66301E-09 9.49942E-04 7.95982E-08
 -1       253 3.36439E-07 7.43290E-04-1.43930E-08
 -1       254-4.38120E-09 1.17532E-03 6.34955E-05
 -1       255 4.83709E-09 8.45480E-04 1.14753E-08
 -1       256-1.37030E-08 4.81611E-04-1.27409E-04
 -1       257 8.29459E-08 5.62067E-04-9.39279E-09
 -1       258-1.33264E-08 4.99606E-04-9.38062E-09
 -1       259-9.71777E-08 5.62064E-04-6.23845E-10
 -1       260-8.33832E-09 4.81768E-04 1.27407E-04
 -1       261-1.78933E-09 2.14217E-04 1.30663E-09
 -3
    1PSTEP                         5           5           1          
  100CL  105 2.50000E-02          81                     1    5           1
 -4  DISP        4    1
 -5  D1          1    2    1    0
 -5  D2          1    2    2    0
 -5  D3          1    2    3    0
 -5  ALL         1    2    0    0    1ALL
 -1         5 0.00000E+00 0.00000E+00 0.00000E+00
 -1         6 0.00000E+00 0.00000E+00 0.00000E+00
 -1         7 0.00000E+00 0.00000E+00 0.00000E+00
 -1         8 0.00000E+00 0.00000E+00 0.00000E+00
 -1        21 0.00000E+00 0.00000E+00 0.00000E+00
 -1        22 0.00000E+00 0.00000E+00 0.00000E+00
 -1        23 0.00000E+00 0.00000E+00 0.00000E+00
 -1        24 0.00000E+00 0.00000E+00 0.00000E+00
 -1        25 0.00000E+00 0.00000E+00 0.00000E+00
 -1        26 0.00000E+00 0.00000E+00 0.00000E+00
 -1        27 0.00000E+00 0.00000E+00 0.00000E+00
 -1        28 0.00000E+00 0.00000E+00 0.00000E+00
 -1        29 0.00000E+00 0.00000E+00 0.00000E+00
 -1        30 0.00000E+00 0.00000E+00 0.00000E+00
 -1        31 0.00000E+00 0.00000E+00 0.00000E+00
 -1        32 0.00000E+00 0.00000E+00 0.00000E+00
 -1        44 7.46050E-05-7.43367E-04 1.08700E-04
 -1        45 1.77415E-05-5.78410E-04 1.75196E-04
 -1        46-2.01987E-05-4.25356E-04 2.00363E-04
 -1        47 2.45578E-05-1.72409E-04 1.32017E-04
 -1        48-2.45662E-05-1.72415E-04 1.32021E-04
 -1        49 2.01744E-05-4.25335E-04 2.00369E-04
 -1        50-1.77783E-05-5.78439E-04 1.75243E-04
 -1        51-7.46538E-05-7.43318E-04 1.08710E-04
 -1        74-7.24974E-05-7.44765E-04-1.08759E-04
 -1        75-1.67264E-05-5.79325E-04-1.75236E-04
 -1        76 1.97051E-05-4.24963E-04-2.00393E-04
 -1        77-2.48766E-05-1.72177E-04-1.32023E-04
 -1        89 7.24602E-05-7.44760E-04-1.08723E-04
 -1        90 1.66918E-05-5.79326E-04-1.75179E-04
 -1        91-1.97380E-05-4.24974E-04-2.00413E-04
 -1        92 2.48659E-05-1.72172E-04-1.32033E-04
 -1        98 0.00000E+00 0.00000E+00 0.00000E+00
 -1        99 0.00000E+00 0.00000E+00 0.00000E+00
 -1       100 0.00000E+00 0.00000E+00 0.00000E+00
 -1       101 0.00000E+00 0.00000E+00 0.00000E+00
 -1       102 0.00000E+00 0.00000E+00 0.00000E+00
 -1       124-3.73145E-06-6.88053E-04 1.02447E-04
 -1       125-3.13763E-08-8.20370E-04 1.07637E-04
 -1       126 3.67012E-06-6.88090E-04 1.02447E-04
 -1       127-2.23904E-08-6.04899E-04 1.93815E-04
 -1       128 1.88492E-06-4.44956E-04 2.15216E-04
 -1       129-7.32948E-09-4.12727E-04 2.19519E-04
 -1       130-1.90211E-06-4.44964E-04 2.15210E-04
 -1       131-3.63859E-09-1.74266E-04 1.28115E-04
 -1       153-6.05596E-05-8.91154E-04 4.82954E-05
 -1       154 5.31810E-07-7.91654E-04-5.00700E-08
 -1       155 5.96871E-05-8.92467E-04-4.83191E-05
 -1       156 8.04417E-08-6.53218E-04-1.03608E-07
 -1       157 1.21720E-05-3.68832E-04 8.62550E-05
 -1       158-1.59750E-07-3.76501E-04-3.90925E-08
 -1       159-1.20192E-05-3.68506E-04-8.62658E-05
 -1       160-3.31022E-08-1.42846E-04-1.39804E-08
 -1       182-2.01098E-06-6.87715E-04-1.02473E-04
 -1       183-2.08947E-08-8.20535E-04-1.07558E-04
 -1       184 1.96484E-06-6.87724E-04-1.02514E-04
 -1       185-3.12235E-08-6.04588E-04-1.93614E-04
 -1       186 1.51499E-06-4.45040E-04-2.15215E-04
 -1       187-8.78196E-09-4.12801E-04-2.19435E-04
 -1       188-1.53780E-06-4.45044E-04-2.15214E-04
 -1       189-4.96317E-09-1.74348E-04-1.28114E-04
 -1       211-5.97236E-05-8.92464E-04-4.83859E-05
 -1       212-5.61016E-07-7.91670E-04 5.79168E-08
 -1       213 6.05098E-05-8.91149E-04 4.83189E-05
 -1       214-1.47309E-07-6.53203E-04-7.19046E-08
 -1       215 1.19978E-05-3.68518E-04-8.62359E-05
 -1       216 1.48341E-07-3.76512E-04-2.48963E-08
 -1       217-1.21885E-05-3.68827E-04 8.62769E-05
 -1       218 2.29954E-08-1.42846E-04-7.85953E-10
 -1       250-4.04266E-08-8.85123E-04 4.80688E-05
 -1       251 3.02365E-07-5.61071E-04 9.20126E-08
 -1       252-5.61071E-08-7.15584E-04 4.97302E-08
 -1       253-3.73044E-07-5.61061E-04-2.61732E-08
 -1       254-3.62764E-08-8.84103E-04-4.79899E-05
 -1       255-1.18437E-08-6.39535E-04 1.70776E-08
 -1       256-1.52843E-08-3.63355E-04 9.63864E-05
 -1       257-7.15948E-08-4.24811E-04-2.36777E-09
 -1       258-2.22920E-08-3.76234E-04-3.64657E-09
 -1       259 4.31386E-08-4.24806E-04 5.45798E-09
 -1       260-1.60983E-08-3.63629E-04-9.64036E-05
 -1       261-1.74623E-09-1.61663E-04 9.41743E-09
 -3
    1PSTEP                         6           6           1          
  100CL  106 3.00000E-02          81                     1    6           1
 -4  DISP        4    1
 -5  D1          1    2    1    0
 -5  D2          1    2    2    0
 -5  D3          1    2    3    0
 -5  ALL         1    2    0    0    1ALL
 -1         5 0.00000E+00 0.00000E+00 0.00000E+00
 -1         6 0.00000E+00 0.00000E+00 0.00000E+00
 -1         7 0.00000E+00 0.00000E+00 0.00000E+00
 -1         8 0.00000E+00 0.00000E+00 0.00000E+00
 -1        21 0.00000E+00 0.00000E+00 0.00000E+00
 -1        22 0.00000E+00 0.00000E+00 0.00000E+00
 -1        23 0.00000E+00 0.00000E+00 0.00000E+00
 -1        24 0.00000E+00 0.00000E+00 0.00000E+00
 -1        25 0.00000E+00 0.00000E+00 0.00000E+00
 -1        26 0.00000E+00 0.00000E+00 0.00000E+00
 -1        27 0.00000E+00 0.00000E+00 0.00000E+00
 -1        28 0.00000E+00 0.00000E+00 0.00000E+00
 -1        29 0.00000E+00 0.00000E+00 0.00000E+00
 -1        30 0.00000E+00 0.00000E+00 0.00000E+00
 -1        31 0.00000E+00 0.00000E+00 0.00000E+00
 -1        32 0.00000E+00 0.00000E+00 0.00000E+00
 -1        44-5.01230E-05 5.42398E-04-7.87180E-05
 -1        45-1.12715E-05 4.21004E-04-1.26894E-04
 -1        46 1.36743E-05 3.07134E-04-1.45345E-04
 -1        47-1.83246E-05 1.24320E-04-9.55943E-05