    1C
    1UUSER                                                              
    1UDATE              15.july.2018                                    
    1UTIME              17:44:45                                        
    1UHOST                                                              
    1UPGM               CalculiX                                        
    1UVERSION           Version 2.13                             
    1UCOMPILETIME       jue jun 14 00:40:39 CEST 2018                    
    1UDIR                                                               
    1UDBN                                                               
    1UMAT    1EL                                                        
    2C                            81                                     1
 -1         5 0.00000E+00 0.00000E+00 8.00000E+00
 -1         6 1.00000E+00 0.00000E+00 8.00000E+00
 -1         7 1.00000E+00 1.00000E+00 8.00000E+00
 -1         8 0.00000E+00 1.00000E+00 8.00000E+00
 -1        21 2.50000E-01 0.00000E+00 8.00000E+00
 -1        22 5.00000E-01 0.00000E+00 8.00000E+00
 -1        23 7.50000E-01 0.00000E+00 8.00000E+00
 -1        24 1.00000E+00 2.50000E-01 8.00000E+00
 -1        25 1.00000E+00 5.00000E-01 8.00000E+00
 -1        26 1.00000E+00 7.50000E-01 8.00000E+00
 -1        27 7.50000E-01 1.00000E+00 8.00000E+00
 -1        28 5.00000E-01 1.00000E+00 8.00000E+00
 -1        29 2.50000E-01 1.00000E+00 8.00000E+00
 -1        30 0.00000E+00 7.50000E-01 8.00000E+00
 -1        31 0.00000E+00 5.00000E-01 8.00000E+00
 -1        32 0.00000E+00 2.50000E-01 8.00000E+00
 -1        44 1.00000E+00 0.00000E+00 6.00000E+00
 -1        45 1.00000E+00 0.00000E+00 6.50000E+00
 -1        46 1.00000E+00 0.00000E+00 7.00000E+00
 -1        47 1.00000E+00 0.00000E+00 7.50000E+00
 -1        48 0.00000E+00 0.00000E+00 7.50000E+00
 -1        49 0.00000E+00 0.00000E+00 7.00000E+00
 -1        50 0.00000E+00 0.00000E+00 6.50000E+00
 -1        51 0.00000E+00 0.00000E+00 6.00000E+00
 -1        74 1.00000E+00 1.00000E+00 6.00000E+00
 -1        75 1.00000E+00 1.00000E+00 6.50000E+00
 -1        76 1.00000E+00 1.00000E+00 7.00000E+00
 -1        77 1.00000E+00 1.00000E+00 7.50000E+00
 -1        89 0.00000E+00 1.00000E+00 6.00000E+00
 -1        90 0.00000E+00 1.00000E+00 6.50000E+00
 -1        91 0.00000E+00 1.00000E+00 7.00000E+00
 -1        92 0.00000E+00 1.00000E+00 7.50000E+00
 -1        98 5.00000E-01 2.50000E-01 8.00000E+00
 -1        99 2.50000E-01 5.00000E-01 8.00000E+00
 -1       100 5.00000E-01 5.00000E-01 8.00000E+00
 -1       101 7.50000E-01 5.00000E-01 8.00000E+00
 -1       102 5.00000E-01 7.50000E-01 8.00000E+00
 -1       124 2.50000E-01 0.00000E+00 6.00000E+00
 -1       125 5.00000E-01 0.00000E+00 6.00000E+00
 -1       126 7.50000E-01 0.00000E+00 6.00000E+00
 -1       127 5.00000E-01 0.00000E+00 6.50000E+00
 -1       128 2.50000E-01 0.00000E+00 7.00000E+00
 -1       129 5.00000E-01 0.00000E+00 7.00000E+00
 -1       130 7.50000E-01 0.00000E+00 7.00000E+00
 -1       131 5.00000E-01 0.00000E+00 7.50000E+00
 -1       153 1.00000E+00 2.50000E-01 6.00000E+00
 -1       154 1.00000E+00 5.00000E-01 6.00000E+00
 -1       155 1.00000E+00 7.50000E-01 6.00000E+00
 -1       156 1.00000E+00 5.00000E-01 6.50000E+00
 -1       157 1.00000E+00 2.50000E-01 7.00000E+00
 -1       158 1.00000E+00 5.00000E-01 7.00000E+00
 -1       159 1.00000E+00 7.50000E-01 7.00000E+00
 -1       160 1.00000E+00 5.00000E-01 7.50000E+00
 -1       182 7.50000E-01 1.00000E+00 6.00000E+00
 -1       183 5.00000E-01 1.00000E+00 6.00000E+00
 -1       184 2.50000E-01 1.00000E+00 6.00000E+00
 -1       185 5.00000E-01 1.00000E+00 6.50000E+00
 -1       186 7.50000E-01 1.00000E+00 7.00000E+00
 -1       187 5.00000E-01 1.00000E+00 7.00000E+00
 -1       188 2.50000E-01 1.00000E+00 7.00000E+00
 -1       189 5.00000E-01 1.00000E+00 7.50000E+00
 -1       211 0.00000E+00 7.50000E-01 6.00000E+00
 -1       212 0.00000E+00 5.00000E-01 6.00000E+00
 -1       213 0.00000E+00 2.50000E-01 6.00000E+00
 -1       214 0.00000E+00 5.00000E-01 6.50000E+00
 -1       215 0.00000E+00 7.50000E-01 7.00000E+00
 -1       216 0.00000E+00 5.00000E-01 7.00000E+00
 -1       217 0.00000E+00 2.50000E-01 7.00000E+00
 -1       218 0.00000E+00 5.00000E-01 7.50000E+00
 -1       250 5.00000E-01 2.50000E-01 6.00000E+00
 -1       251 2.50000E-01 5.00000E-01 6.00000E+00
 -1       252 5.00000E-01 5.00000E-01 6.00000E+00
 -1       253 7.50000E-01 5.00000E-01 6.00000E+00
 -1       254 5.00000E-01 7.50000E-01 6.00000E+00
 -1       255 5.00000E-01 5.00000E-01 6.50000E+00
 -1       256 5.00000E-01 2.50000E-01 7.00000E+00
 -1       257 2.50000E-01 5.00000E-01 7.00000E+00
 -1       258 5.00000E-01 5.00000E-01 7.00000E+00
 -1       259 7.50000E-01 5.00000E-01 7.00000E+00
 -1       260 5.00000E-01 7.50000E-01 7.00000E+00
 -1       261 5.00000E-01 5.00000E-01 7.50000E+00
 -3
    3C                             8                                     1
 -1        25    4    0    1
 -2        51       125       252       212        49       129       258       216       124       250
 -2       251       213        50       127       255       214       128       256       257       217
 -1        26    4    0    1
 -2       125        44       154       252       129        46       158       258       126       153
 -2       253       250       127        45       156       255       130       157       259       256
 -1        27    4    0    1
 -2       212       252       183        89       216       258       187        91       251       254
 -2       184       211       214       255       185        90       257       260       188       215
 -1        28    4    0    1
 -2       252       154        74       183       258       158        76       187       253       155
 -2       182       254       255       156        75       185       259       159       186       260
 -1        29    4    0    1
 -2        49       129       258       216         5        22       100        31       128       256
 -2       257       217        48       131       261       218        21        98        99        32
 -1        30    4    0    1
 -2       129        46       158       258        22         6        25       100       130       157
 -2       259       256       131        47       160       261        23        24       101        98
 -1        31    4    0    1
 -2       216       258       187        91        31       100        28         8       257       260
 -2       188       215       218       261       189        92        99       102        29        30
 -1        32    4    0    1
 -2       258       158        76       187       100        25         7        28       259       159
 -2       186       260       261       160        77       189       101        26        27       102
 -3
    1PSTEP                         1           1           1          
  100CL  101 5.00000E-03          81                     1    1           1
 -4  DISP        4    1
 -5  D1          1    2    1    0
 -5  D2          1    2    2    0
 -5  D3          1    2    3    0
 -5  ALL         1    2    0    0    1ALL
 -1         5 0.00000E+00 0.00000E+00 0.00000E+00
 -1         6 0.00000E+00 0.00000E+00 0.00000E+00
 -1         7 0.00000E+00 0.00000E+00 0.00000E+00
 -1         8 0.00000E+00 0.00000E+00 0.00000E+00
 -1        21 0.00000E+00 0.00000E+00 0.00000E+00
 -1        22 0.00000E+00 0.00000E+00 0.00000E+00
 -1        23 0.00000E+00 0.00000E+00 0.00000E+00
 -1        24 0.00000E+00 0.00000E+00 0.00000E+00
 -1        25 0.00000E+00 0.00000E+00 0.00000E+00
 -1        26 0.00000E+00 0.00000E+00 0.00000E+00
 -1        27 0.00000E+00 0.00000E+00 0.00000E+00
 -1        28 0.00000E+00 0.00000E+00 0.00000E+00
 -1        29 0.00000E+00 0.00000E+00 0.00000E+00
 -1        30 0.00000E+00 0.00000E+00 0.00000E+00
 -1        31 0.00000E+00 0.00000E+00 0.00000E+00
 -1        32 0.00000E+00 0.00000E+00 0.00000E+00
 -1        44-6.04029E-05-3.46677E-03 4.48775E-04
 -1        45 5.67386E-05-2.56268E-03 7.86116E-04
 -1        46-4.75282E-05-1.79579E-03 9.49438E-04
 -1        47 1.31021E-04-6.75034E-04 5.43209E-04
 -1        48-1.31013E-04-6.75029E-04 5.43196E-04
 -1        49 4.75556E-05-1.79578E-03 9.49413E-04
 -1        50-5.66804E-05-2.56267E-03 7.86079E-04
 -1        51 6.05062E-05-3.46677E-03 4.48730E-04
 -1        74 3.20443E-04-4.41431E-03-4.94639E-04
 -1        75 1.91821E-04-2.97319E-03-7.85201E-04
 -1        76-1.10791E-04-1.59752E-03-9.50230E-04
 -1        77-2.08061E-04-5.26570E-04-5.58239E-04
 -1        89-3.20346E-04-4.41432E-03-4.94683E-04
 -1        90-1.91763E-04-2.97319E-03-7.85236E-04
 -1        91 1.10819E-04-1.59752E-03-9.50254E-04
 -1        92 2.08069E-04-5.26574E-04-5.58251E-04
 -1        98 0.00000E+00 0.00000E+00 0.00000E+00
 -1        99 0.00000E+00 0.00000E+00 0.00000E+00
 -1       100 0.00000E+00 0.00000E+00 0.00000E+00
 -1       101 0.00000E+00 0.00000E+00 0.00000E+00
 -1       102 0.00000E+00 0.00000E+00 0.00000E+00
 -1       124 1.48310E-04-2.96685E-03 4.29786E-04
 -1       125 4.98139E-08-3.58916E-03 4.48944E-04
 -1       126-1.48209E-04-2.96685E-03 4.29808E-04
 -1       127 2.84797E-08-2.56272E-03 9.03563E-04
 -1       128-8.85327E-06-1.95304E-03 9.48350E-04
 -1       129 1.28914E-08-1.81492E-03 9.41717E-04
 -1       130 8.87944E-06-1.95304E-03 9.48363E-04
 -1       131 2.76744E-09-7.36519E-04 5.56478E-04
 -1       153 7.03278E-05-3.63642E-03 1.91246E-04
 -1       154-1.19874E-04-2.50388E-03-2.06734E-05
 -1       155-6.59176E-05-3.89050E-03-2.38077E-04
 -1       156-1.20144E-04-2.78945E-03-6.46198E-05
 -1       157-2.05729E-05-1.50935E-03 3.92512E-04
 -1       158 8.83751E-05-1.56735E-03-2.93934E-05
 -1       159 4.69115E-05-1.47571E-03-4.11143E-04
 -1       160 3.97957E-05-6.56601E-04 4.90058E-06
 -1       182 1.14893E-04-2.56311E-03-4.71366E-04
 -1       183 4.65487E-08-4.35505E-03-4.76511E-04
 -1       184-1.14798E-04-2.56311E-03-4.71386E-04
 -1       185 2.89566E-08-2.83319E-03-8.73793E-04
 -1       186-4.41094E-05-2.16260E-03-9.82850E-04
 -1       187 1.29684E-08-1.83217E-03-9.63862E-04
 -1       188 4.41358E-05-2.16260E-03-9.82862E-04
 -1       189 2.90199E-09-7.20079E-04-5.64609E-04
 -1       211 6.60109E-05-3.89050E-03-2.38115E-04
 -1       212 1.19965E-04-2.50387E-03-2.07123E-05
 -1       213-7.02292E-05-3.63642E-03 1.91199E-04
 -1       214 1.20209E-04-2.78946E-03-6.46537E-05
 -1       215-4.68839E-05-1.47571E-03-4.11168E-04
 -1       216-8.83498E-05-1.56735E-03-2.94192E-05
 -1       217 2.05998E-05-1.50935E-03 3.92487E-04
 -1       218-3.97857E-05-6.56601E-04 4.88708E-06
 -1       250 5.26576E-08-4.08264E-03 1.74586E-04
 -1       251 3.07507E-05-2.57266E-03-1.03342E-05
 -1       252 5.43101E-08-3.12354E-03-1.62040E-05
 -1       253-3.06518E-05-2.57266E-03-1.03071E-05
 -1       254 5.08687E-08-4.41294E-03-2.54254E-04
 -1       255 2.77949E-08-2.59996E-03-3.20783E-05
 -1       256 1.44584E-08-1.60735E-03 3.95700E-04
 -1       257-4.11982E-05-1.74947E-03-1.20341E-05
 -1       258 1.56856E-08-1.79026E-03-1.45096E-05
 -1       259 4.12263E-05-1.74947E-03-1.20231E-05
 -1       260 1.45325E-08-1.62266E-03-4.18353E-04
 -1       261 3.30955E-09-7.17062E-04-1.94861E-06
 -3
    1PSTEP                         2           2           1          
  100CL  102 1.00000E-02          81                     1    2           1
 -4  DISP        4    1
 -5  D1          1    2    1    0
 -5  D2          1    2    2    0
 -5  D3          1    2    3    0
 -5  ALL         1    2    0    0    1ALL
 -1         5 0.00000E+00 0.00000E+00 0.00000E+00
 -1         6 0.00000E+00 0.00000E+00 0.00000E+00
 -1         7 0.00000E+00 0.00000E+00 0.00000E+00
 -1         8 0.00000E+00 0.00000E+00 0.00000E+00
 -1        21 0.00000E+00 0.00000E+00 0.00000E+00
 -1        22 0.00000E+00 0.00000E+00 0.00000E+00
 -1        23 0.00000E+00 0.00000E+00 0.00000E+00
 -1        24 0.00000E+00 0.00000E+00 0.00000E+00
 -1        25 0.00000E+00 0.00000E+00 0.00000E+00
 -1        26 0.00000E+00 0.00000E+00 0.00000E+00
 -1        27 0.00000E+00 0.00000E+00 0.00000E+00
 -1        28 0.00000E+00 0.00000E+00 0.00000E+00
 -1        29 0.00000E+00 0.00000E+00 0.00000E+00
 -1        30 0.00000E+00 0.00000E+00 0.00000E+00
 -1        31 0.00000E+00 0.00000E+00 0.00000E+00
 -1        32 0.00000E+00 0.00000E+00 0.00000E+00
 -1        44-1.58713E-04 1.60035E-03-2.34019E-04
 -1        45-3.96157E-05 1.24425E-03-3.77341E-04
 -1        46 4.35702E-05 9.16229E-04-4.32211E-04
 -1        47-5.27102E-05 3.71211E-04-2.84010E-04
 -1        48 5.27108E-05 3.71218E-04-2.84017E-04
 -1        49-4.35624E-05 9.16243E-04-4.32222E-04
 -1        50 3.96357E-05 1.24427E-03-3.77365E-04
 -1        51 1.58773E-04 1.60035E-03-2.34025E-04
 -1        74 1.44260E-04 1.62009E-03 2.34132E-04
 -1        75 3.04771E-05 1.25467E-03 3.77284E-04
 -1        76-3.94450E-05 9.11655E-04 4.32185E-04
 -1        77 5.52850E-05 3.68107E-04 2.84102E-04
 -1        89-1.44150E-04 1.62005E-03 2.34060E-04
 -1        90-3.04345E-05 1.25470E-03 3.77242E-04
 -1        91 3.94900E-05 9.11662E-04 4.32182E-04
 -1        92-5.52782E-05 3.68107E-04 2.84101E-04
 -1        98 0.00000E+00 0.00000E+00 0.00000E+00
 -1        99 0.00000E+00 0.00000E+00 0.00000E+00
 -1       100 0.00000E+00 0.00000E+00 0.00000E+00
 -1       101 0.00000E+00 0.00000E+00 0.00000E+00
 -1       102 0.00000E+00 0.00000E+00 0.00000E+00
 -1       124 1.01267E-05 1.48243E-03-2.20422E-04
 -1       125 3.16136E-08 1.76509E-03-2.31324E-04
 -1       126-1.00662E-05 1.48243E-03-2.20443E-04
 -1       127 1.44569E-08 1.30186E-03-4.18110E-04
 -1       128-4.77875E-06 9.58453E-04-4.63394E-04
 -1       129 2.38198E-09 8.89629E-04-4.72530E-04
 -1       130 4.78471E-06 9.58448E-04-4.63383E-04
 -1       131-6.08434E-10 3.75328E-04-2.76006E-04
 -1       153 1.27306E-04 1.91110E-03-1.03793E-04
 -1       154-1.37427E-06 1.69292E-03 5.63657E-08
 -1       155-1.22825E-04 1.92517E-03 1.04096E-04
 -1       156 1.18759E-06 1.40577E-03 1.18815E-06
 -1       157-2.54270E-05 7.94555E-04-1.85999E-04
 -1       158-2.12820E-07 8.10419E-04 5.01596E-07
 -1       159 2.43839E-05 7.91468E-04 1.85996E-04
 -1       160-3.56753E-07 3.08390E-04 3.20057E-09
 -1       182-1.65982E-06 1.47481E-03 2.20588E-04
 -1       183 2.65549E-08 1.77556E-03 2.31673E-04
 -1       184 1.73692E-06 1.47479E-03 2.20556E-04
 -1       185 2.86489E-08 1.30336E-03 4.16280E-04
 -1       186-1.79323E-06 9.60690E-04 4.63695E-04
 -1       187 1.04997E-08 8.88399E-04 4.72036E-04
 -1       188 1.82669E-06 9.60694E-04 4.63694E-04
 -1       189 5.28870E-09 3.75197E-04 2.75987E-04
 -1       211 1.22896E-04 1.92515E-03 1.04105E-04
 -1       212 1.40161E-06 1.69292E-03 1.04608E-08
 -1       213-1.27264E-04 1.91110E-03-1.03829E-04
 -1       214-1.13758E-06 1.40578E-03 1.16598E-06
 -1       215-2.43568E-05 7.91477E-04 1.85968E-04
 -1       216 2.23195E-07 8.10431E-04 4.83119E-07
 -1       217 2.54374E-05 7.94568E-04-1.86011E-04
 -1       218 3.64825E-07 3.08395E-04-5.82936E-09
 -1       250 3.32664E-08 1.91083E-03-1.03001E-04
 -1       251-4.12210E-06 1.20987E-03-9.27081E-08
 -1       252 3.49635E-08 1.54074E-03 1.14001E-07
 -1       253 4.17405E-06 1.20988E-03-4.09157E-08
 -1       254 3.20076E-08 1.90549E-03 1.03683E-04
 -1       255 1.41834E-08 1.37490E-03 2.00372E-07
 -1       256 8.10291E-09 7.82622E-04-2.07262E-04
 -1       257 1.19341E-06 9.13828E-04 3.54579E-08
 -1       258 1.34519E-08 8.12286E-04 6.65598E-08
 -1       259-1.17558E-06 9.13822E-04 3.78720E-08
 -1       260 1.17413E-08 7.84303E-04 2.07427E-04
 -1       261 2.14800E-09 3.48522E-04 2.23630E-08
 -3
    1PSTEP                         3           3           1          
  100CL  103 1.50000E-02          81                     1    3           1
 -4  DISP        4    1
 -5  D1          1    2    1    0
 -5  D2          1    2    2    0
 -5  D3          1    2    3    0
 -5  ALL         1    2    0    0    1ALL
 -1         5 0.00000E+00 0.00000E+00 0.00000E+00
 -1         6 0.00000E+00 0.00000E+00 0.00000E+00
 -1         7 0.00000E+00 0.00000E+00 0.00000E+00
 -1         8 0.00000E+00 0.00000E+00 0.00000E+00
 -1        21 0.00000E+00 0.00000E+00 0.00000E+00
 -1        22 0.00000E+00 0.00000E+00 0.00000E+00
 -1        23 0.00000E+00 0.00000E+00 0.00000E+00
 -1        24 0.00000E+00 0.00000E+00 0.00000E+00
 -1        25 0.00000E+00 0.00000E+00 0.00000E+00
 -1        26 0.00000E+00 0.00000E+00 0.00000E+00
 -1        27 0.00000E+00 0.00000E+00 0.00000E+00
 -1        28 0.00000E+00 0.00000E+00 0.00000E+00
 -1        29 0.00000E+00 0.00000E+00 0.00000E+00
 -1        30 0.00000E+00 0.00000E+00 0.00000E+00
 -1        31 0.00000E+00 0.00000E+00 0.00000E+00
 -1        32 0.00000E+00 0.00000E+00 0.00000E+00
 -1        44 1.20725E-04-1.27296E-03 1.85303E-04
 -1        45 2.82839E-05-9.89182E-04 2.98694E-04
 -1        46-3.32044E-05-7.24085E-04 3.42258E-04
 -1        47 4.26474E-05-2.93171E-04 2.24992E-04
 -1        48-4.26409E-05-2.93159E-04 2.24961E-04
 -1        49 3.32150E-05-7.24081E-04 3.42213E-04
 -1        50-2.81958E-05-9.89157E-04 2.98658E-04
 -1        51-1.20529E-04-1.27306E-03 1.85266E-04
 -1        74-1.18745E-04-1.27635E-03-1.85250E-04
 -1        75-2.68877E-05-9.90842E-04-2.98588E-04
 -1        76 3.22544E-05-7.22897E-04-3.42170E-04
 -1        77-4.30088E-05-2.92640E-04-2.24978E-04
 -1        89 1.18867E-04-1.27639E-03-1.85310E-04
 -1        90 2.69987E-05-9.90796E-04-2.98614E-04
 -1        91-3.22212E-05-7.22917E-04-3.42205E-04
 -1        92 4.30177E-05-2.92643E-04-2.24996E-04
 -1        98 0.00000E+00 0.00000E+00 0.00000E+00
 -1        99 0.00000E+00 0.00000E+00 0.00000E+00
 -1       100 0.00000E+00 0.00000E+00 0.00000E+00
 -1       101 0.00000E+00 0.00000E+00 0.00000E+00
 -1       102 0.00000E+00 0.00000E+00 0.00000E+00
 -1       124-3.46093E-06-1.17215E-03 1.74568E-04
 -1       125 1.15139E-07-1.39963E-03 1.83129E-04
 -1       126 3.65917E-06-1.17212E-03 1.74586E-04
 -1       127 3.12429E-08-1.03044E-03 3.30413E-04
 -1       128 2.74659E-06-7.59626E-04 3.67025E-04
 -1       129 1.85984E-08-7.04799E-04 3.74055E-04
 -1       130-2.71995E-06-7.59623E-04 3.67048E-04
 -1       131-1.05272E-09-2.97591E-04 2.18694E-04
 -1       153-9.91693E-05-1.51783E-03 8.23510E-05
 -1       154 1.06392E-08-1.34240E-03-1.06960E-08
 -1       155 9.88647E-05-1.51716E-03-8.22904E-05
 -1       156-2.96172E-07-1.11423E-03-1.47539E-07
 -1       157 1.98589E-05-6.28198E-04 1.47376E-04
 -1       158 2.76031E-07-6.41394E-04-5.73983E-08
 -1       159-1.97181E-05-6.28187E-04-1.47340E-04
 -1       160 8.23391E-08-2.44089E-04-1.92131E-09
 -1       182-4.85368E-06-1.17074E-03-1.74551E-04
 -1       183 7.18925E-08-1.40174E-03-1.83105E-04
 -1       184 4.97708E-06-1.17078E-03-1.74624E-04
 -1       185 3.63238E-08-1.03085E-03-3.30124E-04
 -1       186 2.82315E-06-7.59974E-04-3.67054E-04
 -1       187 2.78114E-08-7.04622E-04-3.73973E-04
 -1       188-2.77633E-06-7.59979E-04-3.67060E-04
 -1       189 3.33187E-09-2.97446E-04-2.18653E-04
 -1       211-9.87579E-05-1.51714E-03-8.22972E-05
 -1       212 1.37511E-07-1.34236E-03-3.97757E-08
 -1       213 9.93374E-05-1.51787E-03 8.22088E-05
 -1       214 3.62362E-07-1.11425E-03-1.95383E-07
 -1       215 1.97642E-05-6.28184E-04-1.47384E-04
 -1       216-2.28338E-07-6.41362E-04-9.60041E-08
 -1       217-1.98273E-05-6.28177E-04 1.47359E-04
 -1       218-7.11587E-08-2.44088E-04-1.50733E-08
 -1       250 7.75033E-08-1.51183E-03 8.16493E-05
 -1       251-6.84362E-07-9.57510E-04 9.58144E-09
 -1       252 3.12719E-08-1.22181E-03-1.43474E-08
 -1       253 7.94042E-07-9.57541E-04 1.43047E-09
 -1       254 5.69219E-08-1.51415E-03-8.16863E-05
 -1       255 4.24287E-08-1.08922E-03-3.15089E-08
 -1       256 1.42815E-08-6.20655E-04 1.64138E-04
 -1       257 6.77229E-08-7.24088E-04-1.09931E-08
 -1       258 1.07189E-08-6.43381E-04-1.12772E-09
 -1       259-3.57508E-08-7.24102E-04 1.35245E-08
 -1       260 1.85035E-08-6.20274E-04-1.64150E-04
 -1       261 6.99313E-09-2.76038E-04-9.02611E-09
 -3
    1PSTEP                         4           4           1          
  100CL  104 2.00000E-02          81                     1    4           1
 -4  DISP        4    1
 -5  D1          1    2    1    0
 -5  D2          1    2    2    0
 -5  D3          1    2    3    0
 -5  ALL         1    2    0    0    1ALL
 -1         5 0.00000E+00 0.00000E+00 0.00000E+00
 -1         6 0.00000E+00 0.00000E+00 0.00000E+00
 -1         7 0.00000E+00 0.00000E+00 0.00000E+00
 -1         8 0.00000E+00 0.00000E+00 0.00000E+00
 -1        21 0.00000E+00 0.00000E+00 0.00000E+00
 -1        22 0.00000E+00 0.00000E+00 0.00000E+00
 -1        23 0.00000E+00 0.00000E+00 0.00000E+00
 -1        24 0.00000E+00 0.00000E+00 0.00000E+00
 -1        25 0.00000E+00 0.00000E+00 0.00000E+00
 -1        26 0.00000E+00 0.00000E+00 0.00000E+00
 -1        27 0.00000E+00 0.00000E+00 0.00000E+00
 -1        28 0.00000E+00 0.00000E+00 0.00000E+00
 -1        29 0.00000E+00 0.00000E+00 0.00000E+00
 -1        30 0.00000E+00 0.00000E+00 0.00000E+00
 -1        31 0.00000E+00 0.00000E+00 0.00000E+00
 -1        32 0.00000E+00 0.00000E+00 0.00000E+00
 -1        44-9.52522E-05 9.87351E-04-1.43945E-04
 -1        45-2.23350E-05 7.67111E-04-2.32212E-04
 -1        46 2.61318E-05 5.62896E-04-2.65572E-04
 -1        47-3.28971E-05 2.27964E-04-1.74764E-04
 -1        48 3.28942E-05 2.27963E-04-1.74761E-04
 -1        49-2.61686E-05 5.62876E-04-2.65552E-04
 -1        50 2.23126E-05 7.67120E-04-2.32210E-04
 -1        51 9.51341E-05 9.87366E-04-1.43919E-04
 -1        74 9.28761E-05 9.90435E-04 1.43976E-04
 -1        75 2.07616E-05 7.68749E-04 2.32172E-04
 -1        76-2.51326E-05 5.61813E-04 2.65524E-04
 -1        77 3.33237E-05 2.27459E-04 1.74753E-04
 -1        89-9.28837E-05 9.90401E-04 1.43949E-04
 -1        90-2.08540E-05 7.68765E-04 2.32193E-04
 -1        91 2.51360E-05 5.61797E-04 2.65560E-04
 -1        92-3.33361E-05 2.27464E-04 1.74781E-04
 -1        98 0.00000E+00 0.00000E+00 0.00000E+00
 -1        99 0.00000E+00 0.00000E+00 0.00000E+00
 -1       100 0.00000E+00 0.00000E+00 0.00000E+00
 -1       101 0.00000E+00 0.00000E+00 0.00000E+00
 -1       102 0.00000E+00 0.00000E+00 0.00000E+00
 -1       124 2.93627E-06 9.10723E-04-1.35668E-04
 -1       125 2.31057E-09 1.08642E-03-1.42451E-04
 -1       126-2.99109E-06 9.10708E-04-1.35636E-04
 -1       127-3.44736E-08 8.00767E-04-2.56434E-04
 -1       128-2.20618E-06 5.89528E-04-2.84987E-04
 -1       129 1.10994E-09 5.46671E-04-2.90536E-04
 -1       130 2.18857E-06 5.89539E-04-2.85005E-04
 -1       131-3.36218E-09 2.30881E-04-1.69723E-04
 -1       153 7.82133E-05 1.18107E-03-6.39506E-05
 -1       154-3.17448E-07 1.04561E-03-1.24495E-08
 -1       155-7.74787E-05 1.18084E-03 6.39406E-05
 -1       156 1.67335E-07 8.64708E-04 1.71907E-07
 -1       157-1.57191E-05 4.88073E-04-1.14302E-04
 -1       158-1.41292E-07 4.98669E-04 5.93807E-08
 -1       159 1.55300E-05 4.87971E-04 1.14267E-04
 -1       160-4.16243E-08 1.89428E-04 1.66558E-09
 -1       182 3.49494E-06 9.09550E-04 1.35641E-04
 -1       183-9.19631E-08 1.08797E-03 1.42492E-04
 -1       184-3.58929E-06 9.09554E-04 1.35713E-04
 -1       185-3.77675E-09 8.00855E-04 2.56079E-04
 -1       186-2.13533E-06 5.89817E-04 2.85020E-04
 -1       187-3.15321E-08 5.46603E-04 2.90424E-04
 -1       188 2.10516E-06 5.89806E-04 2.85021E-04
 -1       189-1.28720E-09 2.30820E-04 1.69694E-04
 -1       211 7.74567E-05 1.18086E-03 6.39837E-05
 -1       212 2.82406E-07 1.04569E-03-3.61648E-08
 -1       213-7.82801E-05 1.18112E-03-6.39455E-05
 -1       214-2.24649E-07 8.64686E-04 1.87952E-07
 -1       215-1.55374E-05 4.87970E-04 1.14283E-04
 -1       216 1.24405E-07 4.98681E-04 8.29059E-08
 -1       217 1.56900E-05 4.88069E-04-1.14284E-04
 -1       218 3.16975E-08 1.89423E-04 1.65728E-08
 -1       250-1.67630E-08 1.17131E-03-6.35065E-05
 -1       251 5.19905E-07 7.43537E-04-4.89703E-08
 -1       252-4.18075E-08 9.47577E-04 6.36647E-09
 -1       253-5.80912E-07 7.43495E-04-5.35048E-08
 -1       254-7.29168E-08 1.17274E-03 6.35939E-05
 -1       255-1.92537E-08 8.46619E-04 1.75931E-08
 -1       256-8.51187E-09 4.81594E-04-1.27587E-04
 -1       257-4.09852E-08 5.62334E-04 4.47788E-09
 -1       258-1.62348E-08 4.98588E-04-1.72081E-09
 -1       259 1.69182E-08 5.62329E-04-3.48695E-09
 -1       260-2.29736E-08 4.81406E-04 1.27589E-04
 -1       261-3.09802E-09 2.14165E-04 4.28527E-09
 -3
    1PSTEP                         5           5           1          
  100CL  105 2.50000E-02          81                     1    5           1
 -4  DISP        4    1
 -5  D1          1    2    1    0
 -5  D2          1    2    2    0
 -5  D3          1    2    3    0
 -5  ALL         1    2    0    0    1ALL
 -1         5 0.00000E+00 0.00000E+00 0.00000E+00
 -1         6 0.00000E+00 0.00000E+00 0.00000E+00
 -1         7 0.00000E+00 0.00000E+00 0.00000E+00
 -1         8 0.00000E+00 0.00000E+00 0.00000E+00
 -1        21 0.00000E+00 0.00000E+00 0.00000E+00
 -1        22 0.00000E+00 0.00000E+00 0.00000E+00
 -1        23 0.00000E+00 0.00000E+00 0.00000E+00
 -1        24 0.00000E+00 0.00000E+00 0.00000E+00
 -1        25 0.00000E+00 0.00000E+00 0.00000E+00
 -1        26 0.00000E+00 0.00000E+00 0.00000E+00
 -1        27 0.00000E+00 0.00000E+00 0.00000E+00
 -1        28 0.00000E+00 0.00000E+00 0.00000E+00
 -1        29 0.00000E+00 0.00000E+00 0.00000E+00
 -1        30 0.00000E+00 0.00000E+00 0.00000E+00
 -1        31 0.00000E+00 0.00000E+00 0.00000E+00
 -1        32 0.00000E+00 0.00000E+00 0.00000E+00
 -1        44 7.11108E-05-7.45123E-04 1.08507E-04
 -1        45 1.71162E-05-5.79132E-04 1.74907E-04
 -1        46-1.94994E-05-4.24159E-04 2.00624E-04
 -1        47 2.48885E-05-1.71793E-04 1.31768E-04
 -1        48-2.48815E-05-1.71786E-04 1.31740E-04
 -1        49 1.95057E-05-4.24141E-04 2.00585E-04
 -1        50-1.70075E-05-5.79157E-04 1.74908E-04
 -1        51-7.09681E-05-7.45210E-04 1.08489E-04
 -1        74-6.73129E-05-7.50466E-04-1.08490E-04
 -1        75-1.47005E-05-5.81934E-04-1.74789E-04
 -1        76 1.84100E-05-4.22718E-04-2.00498E-04
 -1        77-2.55145E-05-1.70970E-04-1.31738E-04
 -1        89 6.73829E-05-7.50430E-04-1.08505E-04
 -1        90 1.48362E-05-5.81907E-04-1.74796E-04
 -1        91-1.84203E-05-4.22733E-04-2.00542E-04
 -1        92 2.55237E-05-1.70979E-04-1.31773E-04
 -1        98 0.00000E+00 0.00000E+00 0.00000E+00
 -1        99 0.00000E+00 0.00000E+00 0.00000E+00
 -1       100 0.00000E+00 0.00000E+00 0.00000E+00
 -1       101 0.00000E+00 0.00000E+00 0.00000E+00
 -1       102 0.00000E+00 0.00000E+00 0.00000E+00
 -1       124-3.52254E-06-6.86825E-04 1.02215E-04
 -1       125 1.01728E-07-8.19531E-04 1.07187E-04
 -1       126 3.67687E-06-6.86824E-04 1.02254E-04
 -1       127 2.71851E-08-6.03411E-04 1.93748E-04
 -1       128 1.93443E-06-4.45054E-04 2.14999E-04
 -1       129 2.78216E-08-4.13244E-04 2.19128E-04
 -1       130-1.89868E-06-4.45054E-04 2.15010E-04
 -1       131-3.52302E-10-1.74398E-04 1.28163E-04
 -1       153-5.78067E-05-8.86377E-04 4.82364E-05
 -1       154 2.40678E-07-7.84353E-04-1.94719E-08
 -1       155 5.68629E-05-8.89303E-04-4.81215E-05
 -1       156-3.32500E-07-6.52762E-04-2.87236E-07
 -1       157 1.15590E-05-3.68237E-04 8.64190E-05
 -1       158 1.28713E-07-3.75537E-04-8.58327E-08
 -1       159-1.13091E-05-3.67501E-04-8.63588E-05
 -1       160 1.05680E-07-1.43104E-04 8.66089E-09
 -1       182-1.21845E-06-6.84704E-04-1.02144E-04
 -1       183 1.26924E-07-8.22424E-04-1.07141E-04
 -1       184 1.36300E-06-6.84742E-04-1.02246E-04
 -1       185 1.07036E-08-6.03799E-04-1.93245E-04
 -1       186 1.31592E-06-4.45516E-04-2.15024E-04
 -1       187 4.17912E-08-4.12713E-04-2.18954E-04
 -1       188-1.27462E-06-4.45513E-04-2.15024E-04
 -1       189-1.43740E-09-1.74262E-04-1.28125E-04
 -1       211-5.68076E-05-8.89265E-04-4.81612E-05
 -1       212-1.33967E-07-7.84378E-04 2.13703E-08
 -1       213 5.79005E-05-8.86462E-04 4.81823E-05
 -1       214 3.81452E-07-6.52763E-04-3.22555E-07
 -1       215 1.13358E-05-3.67514E-04-8.63868E-05
 -1       216-7.83454E-08-3.75535E-04-1.22090E-07
 -1       217-1.15242E-05-3.68221E-04 8.63971E-05
 -1       218-9.47526E-08-1.43104E-04-1.47944E-09
 -1       250 5.52645E-08-8.87733E-04 4.77258E-05
 -1       251 8.45281E-07-5.61117E-04 6.23300E-08
 -1       252-4.25344E-09-7.15939E-04-1.74612E-08
 -1       253-7.85363E-07-5.61105E-04 1.36811E-08
 -1       254 7.26264E-08-8.87232E-04-4.78463E-05
 -1       255 3.76172E-08-6.37583E-04 8.17343E-09
 -1       256 1.60239E-08-3.63522E-04 9.60911E-05
 -1       257-2.33842E-07-4.24076E-04-2.38718E-09
 -1       258 6.28029E-09-3.77401E-04 5.44691E-10
 -1       259 2.61015E-07-4.24077E-04 2.24911E-08
 -1       260 2.19348E-08-3.63676E-04-9.60874E-05
 -1       261 9.18107E-09-1.61814E-04-1.28856E-08
 -3
    1PSTEP                         6           6           1          
  100CL  106 3.00000E-02          81                     1    6           1
 -4  DISP        4    1
 -5  D1          1    2    1    0
 -5  D2          1    2    2    0
 -5  D3          1    2    3    0
 -5  ALL         1    2    0    0    1ALL
 -1         5 0.00000E+00 0.00000E+00 0.00000E+00
 -1         6 0.00000E+00 0.00000E+00 0.00000E+00
 -1         7 0.00000E+00 0.00000E+00 0.00000E+00
 -1         8 0.00000E+00 0.00000E+00 0.00000E+00
 -1        21 0.00000E+00 0.00000E+00 0.00000E+00
 -1        22 0.00000E+00 0.00000E+00 0.00000E+00
 -1        23 0.00000E+00 0.00000E+00 0.00000E+00
 -1        24 0.00000E+00 0.00000E+00 0.00000E+00
 -1        25 0.00000E+00 0.00000E+00 0.00000E+00
 -1        26 0.00000E+00 0.00000E+00 0.00000E+00
 -1        27 0.00000E+00 0.00000E+00 0.00000E+00
 -1        28 0.00000E+00 0.00000E+00 0.00000E+00
 -1        29 0.00000E+00 0.00000E+00 0.00000E+00
 -1        30 0.00000E+00 0.00000E+00 0.00000E+00
 -1        31 0.00000E+00 0.00000E+00 0.00000E+00
 -1        32 0.00000E+00 0.00000E+00 0.00000E+00
 -1        44-5.13889E-05 5.41350E-04-7.88192E-05
 -1        45-1.18106E-05 4.20352E-04-1.27072E-04
 -1        46 1.40995E-05 3.07942E-04-1.45402E-04
 -1        47-1.81487E-05 1.24635E-04-9.56684E-05