    1C
    1UUSER                                                              
    1UDATE              15.july.2018                                    
    1UTIME              17:41:58                                        
    1UHOST                                                              
    1UPGM               CalculiX                                        
    1UVERSION           Version 2.13                             
    1UCOMPILETIME       jue jun 14 00:40:39 CEST 2018                    
    1UDIR                                                               
    1UDBN                                                               
    1UMAT    1EL                                                        
    2C                            81                                     1
 -1         5 0.00000E+00 0.00000E+00 8.00000E+00
 -1         6 1.00000E+00 0.00000E+00 8.00000E+00
 -1         7 1.00000E+00 1.00000E+00 8.00000E+00
 -1         8 0.00000E+00 1.00000E+00 8.00000E+00
 -1        21 2.50000E-01 0.00000E+00 8.00000E+00
 -1        22 5.00000E-01 0.00000E+00 8.00000E+00
 -1        23 7.50000E-01 0.00000E+00 8.00000E+00
 -1        24 1.00000E+00 2.50000E-01 8.00000E+00
 -1        25 1.00000E+00 5.00000E-01 8.00000E+00
 -1        26 1.00000E+00 7.50000E-01 8.00000E+00
 -1        27 7.50000E-01 1.00000E+00 8.00000E+00
 -1        28 5.00000E-01 1.00000E+00 8.00000E+00
 -1        29 2.50000E-01 1.00000E+00 8.00000E+00
 -1        30 0.00000E+00 7.50000E-01 8.00000E+00
 -1        31 0.00000E+00 5.00000E-01 8.00000E+00
 -1        32 0.00000E+00 2.50000E-01 8.00000E+00
 -1        44 1.00000E+00 0.00000E+00 6.00000E+00
 -1        45 1.00000E+00 0.00000E+00 6.50000E+00
 -1        46 1.00000E+00 0.00000E+00 7.00000E+00
 -1        47 1.00000E+00 0.00000E+00 7.50000E+00
 -1        48 0.00000E+00 0.00000E+00 7.50000E+00
 -1        49 0.00000E+00 0.00000E+00 7.00000E+00
 -1        50 0.00000E+00 0.00000E+00 6.50000E+00
 -1        51 0.00000E+00 0.00000E+00 6.00000E+00
 -1        74 1.00000E+00 1.00000E+00 6.00000E+00
 -1        75 1.00000E+00 1.00000E+00 6.50000E+00
 -1        76 1.00000E+00 1.00000E+00 7.00000E+00
 -1        77 1.00000E+00 1.00000E+00 7.50000E+00
 -1        89 0.00000E+00 1.00000E+00 6.00000E+00
 -1        90 0.00000E+00 1.00000E+00 6.50000E+00
 -1        91 0.00000E+00 1.00000E+00 7.00000E+00
 -1        92 0.00000E+00 1.00000E+00 7.50000E+00
 -1        98 5.00000E-01 2.50000E-01 8.00000E+00
 -1        99 2.50000E-01 5.00000E-01 8.00000E+00
 -1       100 5.00000E-01 5.00000E-01 8.00000E+00
 -1       101 7.50000E-01 5.00000E-01 8.00000E+00
 -1       102 5.00000E-01 7.50000E-01 8.00000E+00
 -1       124 2.50000E-01 0.00000E+00 6.00000E+00
 -1       125 5.00000E-01 0.00000E+00 6.00000E+00
 -1       126 7.50000E-01 0.00000E+00 6.00000E+00
 -1       127 5.00000E-01 0.00000E+00 6.50000E+00
 -1       128 2.50000E-01 0.00000E+00 7.00000E+00
 -1       129 5.00000E-01 0.00000E+00 7.00000E+00
 -1       130 7.50000E-01 0.00000E+00 7.00000E+00
 -1       131 5.00000E-01 0.00000E+00 7.50000E+00
 -1       153 1.00000E+00 2.50000E-01 6.00000E+00
 -1       154 1.00000E+00 5.00000E-01 6.00000E+00
 -1       155 1.00000E+00 7.50000E-01 6.00000E+00
 -1       156 1.00000E+00 5.00000E-01 6.50000E+00
 -1       157 1.00000E+00 2.50000E-01 7.00000E+00
 -1       158 1.00000E+00 5.00000E-01 7.00000E+00
 -1       159 1.00000E+00 7.50000E-01 7.00000E+00
 -1       160 1.00000E+00 5.00000E-01 7.50000E+00
 -1       182 7.50000E-01 1.00000E+00 6.00000E+00
 -1       183 5.00000E-01 1.00000E+00 6.00000E+00
 -1       184 2.50000E-01 1.00000E+00 6.00000E+00
 -1       185 5.00000E-01 1.00000E+00 6.50000E+00
 -1       186 7.50000E-01 1.00000E+00 7.00000E+00
 -1       187 5.00000E-01 1.00000E+00 7.00000E+00
 -1       188 2.50000E-01 1.00000E+00 7.00000E+00
 -1       189 5.00000E-01 1.00000E+00 7.50000E+00
 -1       211 0.00000E+00 7.50000E-01 6.00000E+00
 -1       212 0.00000E+00 5.00000E-01 6.00000E+00
 -1       213 0.00000E+00 2.50000E-01 6.00000E+00
 -1       214 0.00000E+00 5.00000E-01 6.50000E+00
 -1       215 0.00000E+00 7.50000E-01 7.00000E+00
 -1       216 0.00000E+00 5.00000E-01 7.00000E+00
 -1       217 0.00000E+00 2.50000E-01 7.00000E+00
 -1       218 0.00000E+00 5.00000E-01 7.50000E+00
 -1       250 5.00000E-01 2.50000E-01 6.00000E+00
 -1       251 2.50000E-01 5.00000E-01 6.00000E+00
 -1       252 5.00000E-01 5.00000E-01 6.00000E+00
 -1       253 7.50000E-01 5.00000E-01 6.00000E+00
 -1       254 5.00000E-01 7.50000E-01 6.00000E+00
 -1       255 5.00000E-01 5.00000E-01 6.50000E+00
 -1       256 5.00000E-01 2.50000E-01 7.00000E+00
 -1       257 2.50000E-01 5.00000E-01 7.00000E+00
 -1       258 5.00000E-01 5.00000E-01 7.00000E+00
 -1       259 7.50000E-01 5.00000E-01 7.00000E+00
 -1       260 5.00000E-01 7.50000E-01 7.00000E+00
 -1       261 5.00000E-01 5.00000E-01 7.50000E+00
 -3
    3C                             8                                     1
 -1        25    4    0    1
 -2        51       125       252       212        49       129       258       216       124       250
 -2       251       213        50       127       255       214       128       256       257       217
 -1        26    4    0    1
 -2       125        44       154       252       129        46       158       258       126       153
 -2       253       250       127        45       156       255       130       157       259       256
 -1        27    4    0    1
 -2       212       252       183        89       216       258       187        91       251       254
 -2       184       211       214       255       185        90       257       260       188       215
 -1        28    4    0    1
 -2       252       154        74       183       258       158        76       187       253       155
 -2       182       254       255       156        75       185       259       159       186       260
 -1        29    4    0    1
 -2        49       129       258       216         5        22       100        31       128       256
 -2       257       217        48       131       261       218        21        98        99        32
 -1        30    4    0    1
 -2       129        46       158       258        22         6        25       100       130       157
 -2       259       256       131        47       160       261        23        24       101        98
 -1        31    4    0    1
 -2       216       258       187        91        31       100        28         8       257       260
 -2       188       215       218       261       189        92        99       102        29        30
 -1        32    4    0    1
 -2       258       158        76       187       100        25         7        28       259       159
 -2       186       260       261       160        77       189       101        26        27       102
 -3
    1PSTEP                         1           1           1          
  100CL  101 5.00000E-03          81                     1    1           1
 -4  DISP        4    1
 -5  D1          1    2    1    0
 -5  D2          1    2    2    0
 -5  D3          1    2    3    0
 -5  ALL         1    2    0    0    1ALL
 -1         5 0.00000E+00 0.00000E+00 0.00000E+00
 -1         6 0.00000E+00 0.00000E+00 0.00000E+00
 -1         7 0.00000E+00 0.00000E+00 0.00000E+00
 -1         8 0.00000E+00 0.00000E+00 0.00000E+00
 -1        21 0.00000E+00 0.00000E+00 0.00000E+00
 -1        22 0.00000E+00 0.00000E+00 0.00000E+00
 -1        23 0.00000E+00 0.00000E+00 0.00000E+00
 -1        24 0.00000E+00 0.00000E+00 0.00000E+00
 -1        25 0.00000E+00 0.00000E+00 0.00000E+00
 -1        26 0.00000E+00 0.00000E+00 0.00000E+00
 -1        27 0.00000E+00 0.00000E+00 0.00000E+00
 -1        28 0.00000E+00 0.00000E+00 0.00000E+00
 -1        29 0.00000E+00 0.00000E+00 0.00000E+00
 -1        30 0.00000E+00 0.00000E+00 0.00000E+00
 -1        31 0.00000E+00 0.00000E+00 0.00000E+00
 -1        32 0.00000E+00 0.00000E+00 0.00000E+00
 -1        44-5.93080E-05-3.46404E-03 4.48489E-04
 -1        45 5.66875E-05-2.56115E-03 7.85491E-04
 -1        46-4.79860E-05-1.79629E-03 9.48840E-04
 -1        47 1.30813E-04-6.75305E-04 5.43157E-04
 -1        48-1.30865E-04-6.75333E-04 5.43247E-04
 -1        49 4.78305E-05-1.79629E-03 9.49002E-04
 -1        50-5.70672E-05-2.56120E-03 7.85720E-04
 -1        51 5.87174E-05-3.46400E-03 4.48735E-04
 -1        74 3.16237E-04-4.40592E-03-4.94872E-04
 -1        75 1.89835E-04-2.96916E-03-7.85352E-04
 -1        76-1.09676E-04-1.59948E-03-9.49807E-04
 -1        77-2.07467E-04-5.27697E-04-5.58191E-04
 -1        89-3.16854E-04-4.40592E-03-4.94624E-04
 -1        90-1.90171E-04-2.96915E-03-7.85156E-04
 -1        91 1.09487E-04-1.59945E-03-9.49664E-04
 -1        92 2.07420E-04-5.27675E-04-5.58127E-04
 -1        98 0.00000E+00 0.00000E+00 0.00000E+00
 -1        99 0.00000E+00 0.00000E+00 0.00000E+00
 -1       100 0.00000E+00 0.00000E+00 0.00000E+00
 -1       101 0.00000E+00 0.00000E+00 0.00000E+00
 -1       102 0.00000E+00 0.00000E+00 0.00000E+00
 -1       124 1.48532E-04-2.96645E-03 4.29699E-04
 -1       125-3.37916E-07-3.58806E-03 4.48996E-04
 -1       126-1.49156E-04-2.96645E-03 4.29533E-04
 -1       127-1.61484E-07-2.56265E-03 9.03047E-04
 -1       128-9.06252E-06-1.95249E-03 9.48082E-04
 -1       129-9.16437E-08-1.81412E-03 9.41416E-04
 -1       130 8.89518E-06-1.95249E-03 9.48009E-04
 -1       131-1.68687E-08-7.36381E-04 5.56286E-04
 -1       153 6.89791E-05-3.63724E-03 1.91036E-04
 -1       154-1.19520E-04-2.50568E-03-2.11086E-05
 -1       155-6.51331E-05-3.88969E-03-2.38078E-04
 -1       156-1.19744E-04-2.78872E-03-6.44983E-05
 -1       157-2.05296E-05-1.50940E-03 3.92109E-04
 -1       158 8.79138E-05-1.56754E-03-2.93858E-05
 -1       159 4.66238E-05-1.47616E-03-4.11017E-04
 -1       160 3.95674E-05-6.56482E-04 4.83198E-06
 -1       182 1.14616E-04-2.56507E-03-4.71125E-04
 -1       183-2.45658E-07-4.35017E-03-4.76883E-04
 -1       184-1.15167E-04-2.56507E-03-4.71055E-04
 -1       185-1.89805E-07-2.83209E-03-8.73812E-04
 -1       186-4.40687E-05-2.16147E-03-9.82571E-04
 -1       187-7.00334E-08-1.83220E-03-9.63638E-04
 -1       188 4.39066E-05-2.16146E-03-9.82490E-04
 -1       189-1.99692E-08-7.20283E-04-5.64433E-04
 -1       211 6.45883E-05-3.88973E-03-2.37893E-04
 -1       212 1.19036E-04-2.50578E-03-2.09154E-05
 -1       213-6.95335E-05-3.63727E-03 1.91325E-04
 -1       214 1.19333E-04-2.78869E-03-6.43032E-05
 -1       215-4.67963E-05-1.47616E-03-4.10861E-04
 -1       216-8.80598E-05-1.56756E-03-2.92259E-05
 -1       217 2.03777E-05-1.50941E-03 3.92256E-04
 -1       218-3.96330E-05-6.56479E-04 4.92132E-06
 -1       250-3.47272E-07-4.07880E-03 1.74821E-04
 -1       251 2.99823E-05-2.57182E-03-1.06373E-05
 -1       252-3.42759E-07-3.12259E-03-1.62058E-05
 -1       253-3.05677E-05-2.57177E-03-1.08180E-05
 -1       254-2.92999E-07-4.40798E-03-2.54393E-04
 -1       255-1.62885E-07-2.60008E-03-3.20353E-05
 -1       256-9.87773E-08-1.60716E-03 3.95627E-04
 -1       257-4.10998E-05-1.74941E-03-1.19736E-05
 -1       258-1.05138E-07-1.78932E-03-1.45390E-05
 -1       259 4.09242E-05-1.74940E-03-1.20329E-05
 -1       260-8.97799E-08-1.62272E-03-4.18335E-04
 -1       261-1.98834E-08-7.16840E-04-1.94775E-06
 -3
    1PSTEP                         2           2           1          
  100CL  102 1.00000E-02          81                     1    2           1
 -4  DISP        4    1
 -5  D1          1    2    1    0
 -5  D2          1    2    2    0
 -5  D3          1    2    3    0
 -5  ALL         1    2    0    0    1ALL
 -1         5 0.00000E+00 0.00000E+00 0.00000E+00
 -1         6 0.00000E+00 0.00000E+00 0.00000E+00
 -1         7 0.00000E+00 0.00000E+00 0.00000E+00
 -1         8 0.00000E+00 0.00000E+00 0.00000E+00
 -1        21 0.00000E+00 0.00000E+00 0.00000E+00
 -1        22 0.00000E+00 0.00000E+00 0.00000E+00
 -1        23 0.00000E+00 0.00000E+00 0.00000E+00
 -1        24 0.00000E+00 0.00000E+00 0.00000E+00
 -1        25 0.00000E+00 0.00000E+00 0.00000E+00
 -1        26 0.00000E+00 0.00000E+00 0.00000E+00
 -1        27 0.00000E+00 0.00000E+00 0.00000E+00
 -1        28 0.00000E+00 0.00000E+00 0.00000E+00
 -1        29 0.00000E+00 0.00000E+00 0.00000E+00
 -1        30 0.00000E+00 0.00000E+00 0.00000E+00
 -1        31 0.00000E+00 0.00000E+00 0.00000E+00
 -1        32 0.00000E+00 0.00000E+00 0.00000E+00
 -1        44-1.54134E-04 1.60596E-03-2.33961E-04
 -1        45-3.65762E-05 1.24736E-03-3.77327E-04
 -1        46 4.18762E-05 9.14817E-04-4.32309E-04
 -1        47-5.35702E-05 3.70339E-04-2.84047E-04
 -1        48 5.35481E-05 3.70323E-04-2.84007E-04
 -1        49-4.19537E-05 9.14810E-04-4.32230E-04
 -1        50 3.63832E-05 1.24735E-03-3.77235E-04
 -1        51 1.53736E-04 1.60608E-03-2.33864E-04
 -1        74 1.45771E-04 1.61268E-03 2.34107E-04
 -1        75 3.22996E-05 1.25138E-03 3.77583E-04
 -1        76-4.03137E-05 9.13426E-04 4.32299E-04
 -1        77 5.48092E-05 3.69168E-04 2.84025E-04
 -1        89-1.46125E-04 1.61262E-03 2.34237E-04
 -1        90-3.25292E-05 1.25140E-03 3.77690E-04
 -1        91 4.02543E-05 9.13431E-04 4.32404E-04
 -1        92-5.48328E-05 3.69183E-04 2.84081E-04
 -1        98 0.00000E+00 0.00000E+00 0.00000E+00
 -1        99 0.00000E+00 0.00000E+00 0.00000E+00
 -1       100 0.00000E+00 0.00000E+00 0.00000E+00
 -1       101 0.00000E+00 0.00000E+00 0.00000E+00
 -1       102 0.00000E+00 0.00000E+00 0.00000E+00
 -1       124 7.97608E-06 1.48084E-03-2.20491E-04
 -1       125-1.68586E-07 1.76667E-03-2.31268E-04
 -1       126-8.32970E-06 1.48079E-03-2.20484E-04
 -1       127-1.07844E-07 1.30158E-03-4.17362E-04
 -1       128-4.14910E-06 9.58896E-04-4.63461E-04
 -1       129-3.29897E-08 8.89602E-04-4.72375E-04
 -1       130 4.07563E-06 9.58898E-04-4.63510E-04
 -1       131-6.23742E-09 3.75427E-04-2.76001E-04
 -1       153 1.25505E-04 1.91455E-03-1.04031E-04
 -1       154-1.98010E-06 1.69530E-03 1.10989E-07
 -1       155-1.23205E-04 1.92153E-03 1.03912E-04
 -1       156-2.20291E-07 1.40687E-03 5.26958E-07
 -1       157-2.52127E-05 7.93669E-04-1.86046E-04
 -1       158 3.19502E-07 8.09704E-04 1.51388E-07
 -1       159 2.43341E-05 7.92223E-04 1.86047E-04
 -1       160-1.53586E-08 3.08070E-04-2.46570E-08
 -1       182 3.30931E-07 1.47865E-03 2.20522E-04
 -1       183-2.12579E-07 1.76904E-03 2.31746E-04
 -1       184-7.05577E-07 1.47865E-03 2.20644E-04
 -1       185-8.28935E-08 1.30130E-03 4.16847E-04
 -1       186-2.54258E-06 9.59902E-04 4.63689E-04
 -1       187-5.08058E-08 8.90235E-04 4.72215E-04
 -1       188 2.46037E-06 9.59900E-04 4.63729E-04
 -1       189-5.07126E-09 3.75857E-04 2.76080E-04
 -1       211 1.22828E-04 1.92150E-03 1.04145E-04
 -1       212 1.55712E-06 1.69533E-03 2.78178E-07
 -1       213-1.25903E-04 1.91464E-03-1.03863E-04
 -1       214 4.82515E-08 1.40686E-03 6.57167E-07
 -1       215-2.44256E-05 7.92229E-04 1.86125E-04
 -1       216-4.33579E-07 8.09704E-04 2.37565E-07
 -1       217 2.51121E-05 7.93663E-04-1.85973E-04
 -1       218-1.04197E-08 3.08069E-04 1.24625E-08
 -1       250-1.48510E-07 1.91134E-03-1.02986E-04
 -1       251-2.33351E-06 1.20873E-03 1.86596E-07
 -1       252-1.28636E-07 1.54361E-03 1.22902E-07
 -1       253 1.99692E-06 1.20871E-03 1.53654E-07
 -1       254-1.77771E-07 1.90687E-03 1.03706E-04
 -1       255-1.04977E-07 1.37597E-03 6.88368E-08
 -1       256-3.41956E-08 7.82680E-04-2.07247E-04
 -1       257 4.67344E-07 9.14139E-04 7.99734E-08
 -1       258-3.23870E-08 8.11708E-04 1.08921E-07
 -1       259-5.54139E-07 9.14139E-04 2.54230E-08
 -1       260-4.10871E-08 7.84210E-04 2.07402E-04
 -1       261-1.29398E-08 3.48205E-04-4.36486E-09
 -3
    1PSTEP                         3           3           1          
  100CL  103 1.50000E-02          81                     1    3           1
 -4  DISP        4    1
 -5  D1          1    2    1    0
 -5  D2          1    2    2    0
 -5  D3          1    2    3    0
 -5  ALL         1    2    0    0    1ALL
 -1         5 0.00000E+00 0.00000E+00 0.00000E+00
 -1         6 0.00000E+00 0.00000E+00 0.00000E+00
 -1         7 0.00000E+00 0.00000E+00 0.00000E+00
 -1         8 0.00000E+00 0.00000E+00 0.00000E+00
 -1        21 0.00000E+00 0.00000E+00 0.00000E+00
 -1        22 0.00000E+00 0.00000E+00 0.00000E+00
 -1        23 0.00000E+00 0.00000E+00 0.00000E+00
 -1        24 0.00000E+00 0.00000E+00 0.00000E+00
 -1        25 0.00000E+00 0.00000E+00 0.00000E+00
 -1        26 0.00000E+00 0.00000E+00 0.00000E+00
 -1        27 0.00000E+00 0.00000E+00 0.00000E+00
 -1        28 0.00000E+00 0.00000E+00 0.00000E+00
 -1        29 0.00000E+00 0.00000E+00 0.00000E+00
 -1        30 0.00000E+00 0.00000E+00 0.00000E+00
 -1        31 0.00000E+00 0.00000E+00 0.00000E+00
 -1        32 0.00000E+00 0.00000E+00 0.00000E+00
 -1        44 1.16636E-04-1.27798E-03 1.85229E-04
 -1        45 2.62219E-05-9.91176E-04 2.98656E-04
 -1        46-3.17742E-05-7.22756E-04 3.42374E-04
 -1        47 4.33100E-05-2.92370E-04 2.24902E-04
 -1        48-4.32980E-05-2.92359E-04 2.24859E-04
 -1        49 3.17568E-05-7.22729E-04 3.42317E-04
 -1        50-2.60363E-05-9.91217E-04 2.98651E-04
 -1        51-1.16330E-04-1.27821E-03 1.85176E-04
 -1        74-1.13094E-04-1.27899E-03-1.85549E-04
 -1        75-2.43655E-05-9.91925E-04-2.98852E-04
 -1        76 3.09804E-05-7.22656E-04-3.42394E-04
 -1        77-4.37934E-05-2.92171E-04-2.24845E-04
 -1        89 1.13311E-04-1.27855E-03-1.85332E-04
 -1        90 2.45718E-05-9.91949E-04-2.98763E-04
 -1        91-3.10174E-05-7.22651E-04-3.42527E-04
 -1        92 4.37999E-05-2.92183E-04-2.24923E-04
 -1        98 0.00000E+00 0.00000E+00 0.00000E+00
 -1        99 0.00000E+00 0.00000E+00 0.00000E+00
 -1       100 0.00000E+00 0.00000E+00 0.00000E+00
 -1       101 0.00000E+00 0.00000E+00 0.00000E+00
 -1       102 0.00000E+00 0.00000E+00 0.00000E+00
 -1       124-4.22359E-06-1.17079E-03 1.74442E-04
 -1       125 2.11631E-07-1.40177E-03 1.83214E-04
 -1       126 4.53895E-06-1.17077E-03 1.74459E-04
 -1       127 4.13602E-08-1.03087E-03 3.30293E-04
 -1       128 2.72273E-06-7.60000E-04 3.67071E-04
 -1       129 4.73272E-08-7.04449E-04 3.73822E-04
 -1       130-2.67206E-06-7.59994E-04 3.67098E-04
 -1       131-3.84266E-09-2.97449E-04 2.18651E-04
 -1       153-9.76256E-05-1.51766E-03 8.23184E-05
 -1       154 1.59416E-06-1.34183E-03 3.72559E-08
 -1       155 9.60800E-05-1.51938E-03-8.22852E-05
 -1       156 4.44758E-07-1.11528E-03-1.00899E-07
 -1       157 1.96203E-05-6.27585E-04 1.47390E-04
 -1       158-3.31865E-07-6.40367E-04-7.90203E-09
 -1       159-1.91991E-05-6.27265E-04-1.47356E-04
 -1       160-1.24821E-07-2.43911E-04 3.42702E-09
 -1       182-1.67565E-06-1.17097E-03-1.74462E-04
 -1       183 1.87412E-07-1.40004E-03-1.83174E-04
 -1       184 1.93141E-06-1.17084E-03-1.74524E-04
 -1       185 2.97828E-08-1.02986E-03-3.29859E-04
 -1       186 2.13891E-06-7.59980E-04-3.67120E-04
 -1       187 4.10578E-08-7.04968E-04-3.73707E-04
 -1       188-2.10429E-06-7.59962E-04-3.67146E-04
 -1       189-5.29484E-09-2.97799E-04-2.18698E-04
 -1       211-9.59071E-05-1.51911E-03-8.25060E-05
 -1       212-1.33730E-06-1.34182E-03 1.43351E-07
 -1       213 9.78416E-05-1.51784E-03 8.22098E-05
 -1       214-4.01607E-07-1.11525E-03-1.57775E-07
 -1       215 1.92440E-05-6.27281E-04-1.47364E-04
 -1       216 4.27576E-07-6.40382E-04-7.05779E-08
 -1       217-1.95679E-05-6.27567E-04 1.47366E-04
 -1       218 1.33708E-07-2.43911E-04-1.66971E-08
 -1       250 1.00876E-07-1.51631E-03 8.15692E-05
 -1       251 3.14838E-07-9.56682E-04 2.07047E-07
 -1       252-4.92065E-08-1.22614E-03 6.99078E-08
 -1       253-2.23146E-07-9.56690E-04 4.67440E-08
 -1       254 7.75564E-08-1.51363E-03-8.16952E-05
 -1       255 6.57356E-08-1.08982E-03-1.38994E-08
 -1       256 1.85286E-08-6.20061E-04 1.64096E-04
 -1       257-1.47373E-08-7.24166E-04-4.99087E-08
 -1       258-4.63654E-09-6.43085E-04-1.64558E-08
 -1       259 5.07746E-08-7.24157E-04 7.39639E-09
 -1       260 1.74691E-08-6.20722E-04-1.64092E-04
 -1       261 1.39913E-08-2.75661E-04 1.71450E-08
 -3
    1PSTEP                         4           4           1          
  100CL  104 2.00000E-02          81                     1    4           1
 -4  DISP        4    1
 -5  D1          1    2    1    0
 -5  D2          1    2    2    0
 -5  D3          1    2    3    0
 -5  ALL         1    2    0    0    1ALL
 -1         5 0.00000E+00 0.00000E+00 0.00000E+00
 -1         6 0.00000E+00 0.00000E+00 0.00000E+00
 -1         7 0.00000E+00 0.00000E+00 0.00000E+00
 -1         8 0.00000E+00 0.00000E+00 0.00000E+00
 -1        21 0.00000E+00 0.00000E+00 0.00000E+00
 -1        22 0.00000E+00 0.00000E+00 0.00000E+00
 -1        23 0.00000E+00 0.00000E+00 0.00000E+00
 -1        24 0.00000E+00 0.00000E+00 0.00000E+00
 -1        25 0.00000E+00 0.00000E+00 0.00000E+00
 -1        26 0.00000E+00 0.00000E+00 0.00000E+00
 -1        27 0.00000E+00 0.00000E+00 0.00000E+00
 -1        28 0.00000E+00 0.00000E+00 0.00000E+00
 -1        29 0.00000E+00 0.00000E+00 0.00000E+00
 -1        30 0.00000E+00 0.00000E+00 0.00000E+00
 -1        31 0.00000E+00 0.00000E+00 0.00000E+00
 -1        32 0.00000E+00 0.00000E+00 0.00000E+00
 -1        44-9.59455E-05 9.86554E-04-1.43960E-04
 -1        45-2.29121E-05 7.67054E-04-2.31868E-04
 -1        46 2.61940E-05 5.62530E-04-2.65625E-04
 -1        47-3.28450E-05 2.27892E-04-1.74708E-04
 -1        48 3.28388E-05 2.27891E-04-1.74708E-04
 -1        49-2.61989E-05 5.62528E-04-2.65627E-04
 -1        50 2.28911E-05 7.67060E-04-2.31844E-04
 -1        51 9.59935E-05 9.86464E-04-1.43934E-04
 -1        74 9.18661E-05 9.90611E-04 1.43793E-04
 -1        75 2.04849E-05 7.69485E-04 2.31736E-04
 -1        76-2.49613E-05 5.61322E-04 2.65699E-04
 -1        77 3.35237E-05 2.27198E-04 1.74751E-04
 -1        89-9.18278E-05 9.90630E-04 1.43757E-04
 -1        90-2.04951E-05 7.69497E-04 2.31735E-04
 -1        91 2.49539E-05 5.61317E-04 2.65709E-04
 -1        92-3.35273E-05 2.27199E-04 1.74756E-04
 -1        98 0.00000E+00 0.00000E+00 0.00000E+00
 -1        99 0.00000E+00 0.00000E+00 0.00000E+00
 -1       100 0.00000E+00 0.00000E+00 0.00000E+00
 -1       101 0.00000E+00 0.00000E+00 0.00000E+00
 -1       102 0.00000E+00 0.00000E+00 0.00000E+00
 -1       124 4.42890E-06 9.10902E-04-1.35710E-04
 -1       125-1.16945E-08 1.08663E-03-1.42235E-04
 -1       126-4.42526E-06 9.10942E-04-1.35741E-04
 -1       127-4.52712E-10 8.00273E-04-2.56859E-04
 -1       128-2.44200E-06 5.89559E-04-2.84972E-04
 -1       129-1.05090E-08 5.47215E-04-2.90569E-04
 -1       130 2.43133E-06 5.89562E-04-2.84967E-04
 -1       131-1.73300E-09 2.30981E-04-1.69764E-04
 -1       153 7.83622E-05 1.17778E-03-6.38746E-05
 -1       154-8.38764E-07 1.04446E-03-2.06948E-07
 -1       155-7.70170E-05 1.17977E-03 6.39396E-05
 -1       156 1.37286E-07 8.65686E-04 2.19481E-07
 -1       157-1.57391E-05 4.87959E-04-1.14428E-04
 -1       158 1.86730E-08 4.97674E-04 1.39246E-07
 -1       159 1.54147E-05 4.87399E-04 1.14396E-04
 -1       160-2.71601E-08 1.89260E-04 2.84153E-08
 -1       182 2.34464E-06 9.09304E-04 1.35713E-04
 -1       183 7.87504E-09 1.08815E-03 1.42184E-04
 -1       184-2.32737E-06 9.09296E-04 1.35720E-04
 -1       185-5.33608E-09 8.00173E-04 2.56303E-04
 -1       186-1.84636E-06 5.89888E-04 2.85030E-04
 -1       187-1.60731E-09 5.47055E-04 2.90411E-04
 -1       188 1.84316E-06 5.89889E-04 2.85029E-04
 -1       189-1.60102E-09 2.31000E-04 1.69759E-04
 -1       211 7.70119E-05 1.17979E-03 6.39417E-05
 -1       212 8.09119E-07 1.04445E-03-1.67495E-07
 -1       213-7.83605E-05 1.17772E-03-6.38951E-05
 -1       214-1.54477E-07 8.65681E-04 2.27692E-07
 -1       215-1.54203E-05 4.87397E-04 1.14401E-04
 -1       216-2.60884E-08 4.97679E-04 1.41502E-07
 -1       217 1.57350E-05 4.87963E-04-1.14416E-04
 -1       218 2.38400E-08 1.89261E-04 3.10606E-08
 -1       250-2.19062E-08 1.17545E-03-6.33546E-05
 -1       251-3.27509E-07 7.42956E-04-8.13804E-08
 -1       252-2.90664E-08 9.49811E-04-6.97510E-08
 -1       253 2.87858E-07 7.42961E-04-1.02870E-07
 -1       254-6.97048E-09 1.17461E-03 6.33584E-05
 -1       255-6.34758E-09 8.46189E-04 2.97013E-08
 -1       256-8.34923E-09 4.81453E-04-1.27503E-04
 -1       257 1.35372E-07 5.62391E-04 3.99643E-09
 -1       258-6.75526E-09 4.99147E-04 1.31801E-08
 -1       259-1.46951E-07 5.62388E-04 3.45067E-09
 -1       260-5.00922E-09 4.81719E-04 1.27535E-04
 -1       261-4.69321E-10 2.14162E-04 8.32549E-09
 -3
    1PSTEP                         5           5           1          
  100CL  105 2.50000E-02          81                     1    5           1
 -4  DISP        4    1
 -5  D1          1    2    1    0
 -5  D2          1    2    2    0
 -5  D3          1    2    3    0
 -5  ALL         1    2    0    0    1ALL
 -1         5 0.00000E+00 0.00000E+00 0.00000E+00
 -1         6 0.00000E+00 0.00000E+00 0.00000E+00
 -1         7 0.00000E+00 0.00000E+00 0.00000E+00
 -1         8 0.00000E+00 0.00000E+00 0.00000E+00
 -1        21 0.00000E+00 0.00000E+00 0.00000E+00
 -1        22 0.00000E+00 0.00000E+00 0.00000E+00
 -1        23 0.00000E+00 0.00000E+00 0.00000E+00
 -1        24 0.00000E+00 0.00000E+00 0.00000E+00
 -1        25 0.00000E+00 0.00000E+00 0.00000E+00
 -1        26 0.00000E+00 0.00000E+00 0.00000E+00
 -1        27 0.00000E+00 0.00000E+00 0.00000E+00
 -1        28 0.00000E+00 0.00000E+00 0.00000E+00
 -1        29 0.00000E+00 0.00000E+00 0.00000E+00
 -1        30 0.00000E+00 0.00000E+00 0.00000E+00
 -1        31 0.00000E+00 0.00000E+00 0.00000E+00
 -1        32 0.00000E+00 0.00000E+00 0.00000E+00
 -1        44 6.97610E-05-7.47707E-04 1.08642E-04
 -1        45 1.60216E-05-5.80140E-04 1.75277E-04
 -1        46-1.90859E-05-4.24174E-04 2.00608E-04
 -1        47 2.51477E-05-1.71667E-04 1.31865E-04
 -1        48-2.51473E-05-1.71666E-04 1.31860E-04
 -1        49 1.90936E-05-4.24177E-04 2.00593E-04
 -1        50-1.60084E-05-5.80129E-04 1.75290E-04
 -1        51-6.97113E-05-7.47787E-04 1.08687E-04
 -1        74-6.78009E-05-7.50443E-04-1.08619E-04
 -1        75-1.47660E-05-5.81572E-04-1.75187E-04
 -1        76 1.85220E-05-4.23487E-04-2.00581E-04
 -1        77-2.54795E-05-1.71246E-04-1.31876E-04
 -1        89 6.78889E-05-7.50443E-04-1.08684E-04
 -1        90 1.47829E-05-5.81573E-04-1.75212E-04
 -1        91-1.85133E-05-4.23490E-04-2.00590E-04
 -1        92 2.54808E-05-1.71247E-04-1.31880E-04
 -1        98 0.00000E+00 0.00000E+00 0.00000E+00
 -1        99 0.00000E+00 0.00000E+00 0.00000E+00
 -1       100 0.00000E+00 0.00000E+00 0.00000E+00
 -1       101 0.00000E+00 0.00000E+00 0.00000E+00
 -1       102 0.00000E+00 0.00000E+00 0.00000E+00
 -1       124-2.58839E-06-6.86757E-04 1.02366E-04
 -1       125 3.69976E-09-8.21277E-04 1.07563E-04
 -1       126 2.61423E-06-6.86714E-04 1.02332E-04
 -1       127 1.56400E-08-6.04592E-04 1.93607E-04
 -1       128 1.66170E-06-4.45297E-04 2.15172E-04
 -1       129-2.76880E-09-4.12669E-04 2.19223E-04
 -1       130-1.65969E-06-4.45296E-04 2.15181E-04
 -1       131 4.98596E-10-1.74247E-04 1.28151E-04
 -1       153-5.79419E-05-8.90322E-04 4.82506E-05
 -1       154 1.87810E-07-7.87092E-04 6.09281E-08
 -1       155 5.74470E-05-8.92044E-04-4.82368E-05
 -1       156-1.81480E-07-6.52942E-04-1.27144E-07
 -1       157 1.16224E-05-3.68206E-04 8.63278E-05
 -1       158 5.19718E-08-3.76094E-04-6.68153E-08
 -1       159-1.14983E-05-3.67801E-04-8.63068E-05
 -1       160 5.14551E-08-1.43079E-04-4.53248E-09
 -1       182-1.15152E-06-6.85628E-04-1.02319E-04
 -1       183 3.05808E-08-8.22706E-04-1.07522E-04
 -1       184 1.21821E-06-6.85636E-04-1.02338E-04
 -1       185 8.23160E-09-6.04795E-04-1.93339E-04
 -1       186 1.28535E-06-4.45532E-04-2.15198E-04
 -1       187 3.79956E-09-4.12371E-04-2.19142E-04
 -1       188-1.27608E-06-4.45532E-04-2.15207E-04
 -1       189 2.94657E-10-1.74183E-04-1.28133E-04
 -1       211-5.73854E-05-8.92049E-04-4.82840E-05
 -1       212-1.52299E-07-7.87114E-04 6.33724E-08
 -1       213 5.79795E-05-8.90373E-04 4.82321E-05
 -1       214 1.99188E-07-6.52941E-04-1.37607E-07
 -1       215 1.15068E-05-3.67804E-04-8.63132E-05
 -1       216-4.42863E-08-3.76094E-04-7.67921E-08
 -1       217-1.16129E-05-3.68208E-04 8.63263E-05
 -1       218-4.94937E-08-1.43079E-04-9.95741E-09
 -1       250 4.72120E-09-8.86595E-04 4.80047E-05
 -1       251 4.93897E-07-5.61467E-04 3.01009E-08
 -1       252 1.11459E-08-7.16448E-04 3.09717E-08
 -1       253-4.65699E-07-5.61452E-04 2.55133E-08
 -1       254 2.44704E-08-8.86038E-04-4.79974E-05
 -1       255 9.20870E-09-6.38695E-04-8.53550E-09
 -1       256 9.98400E-10-3.63480E-04 9.62515E-05
 -1       257-1.42465E-07-4.24372E-04 2.07716E-09
 -1       258 3.01667E-09-3.76814E-04-4.22224E-09
 -1       259 1.49143E-07-4.24373E-04 7.93993E-09
 -1       260 2.71385E-09-3.63609E-04-9.62638E-05
 -1       261 7.80912E-10-1.61687E-04-9.13032E-09
 -3
    1PSTEP                         6           6           1          
  100CL  106 3.00000E-02          81                     1    6           1
 -4  DISP        4    1
 -5  D1          1    2    1    0
 -5  D2          1    2    2    0
 -5  D3          1    2    3    0
 -5  ALL         1    2    0    0    1ALL
 -1         5 0.00000E+00 0.00000E+00 0.00000E+00
 -1         6 0.00000E+00 0.00000E+00 0.00000E+00
 -1         7 0.00000E+00 0.00000E+00 0.00000E+00
 -1         8 0.00000E+00 0.00000E+00 0.00000E+00
 -1        21 0.00000E+00 0.00000E+00 0.00000E+00
 -1        22 0.00000E+00 0.00000E+00 0.00000E+00
 -1        23 0.00000E+00 0.00000E+00 0.00000E+00
 -1        24 0.00000E+00 0.00000E+00 0.00000E+00
 -1        25 0.00000E+00 0.00000E+00 0.00000E+00
 -1        26 0.00000E+00 0.00000E+00 0.00000E+00
 -1        27 0.00000E+00 0.00000E+00 0.00000E+00
 -1        28 0.00000E+00 0.00000E+00 0.00000E+00
 -1        29 0.00000E+00 0.00000E+00 0.00000E+00
 -1        30 0.00000E+00 0.00000E+00 0.00000E+00
 -1        31 0.00000E+00 0.00000E+00 0.00000E+00
 -1        32 0.00000E+00 0.00000E+00 0.00000E+00
 -1        44-5.22437E-05 5.39974E-04-7.87232E-05
 -1        45-1.22912E-05 4.19995E-04-1.26865E-04
 -1        46 1.43350E-05 3.07906E-04-1.45360E-04
 -1        47-1.80096E-05 1.24729E-04-9.56437E-05