
 displacements (vx,vy,vz) for set NALL and time  0.5000000E-02

         5  0.000000E+00  0.000000E+00  0.000000E+00
         6  0.000000E+00  0.000000E+00  0.000000E+00
         7  0.000000E+00  0.000000E+00  0.000000E+00
         8  0.000000E+00  0.000000E+00  0.000000E+00
        21  0.000000E+00  0.000000E+00  0.000000E+00
        22  0.000000E+00  0.000000E+00  0.000000E+00
        23  0.000000E+00  0.000000E+00  0.000000E+00
        24  0.000000E+00  0.000000E+00  0.000000E+00
        25  0.000000E+00  0.000000E+00  0.000000E+00
        26  0.000000E+00  0.000000E+00  0.000000E+00
        27  0.000000E+00  0.000000E+00  0.000000E+00
        28  0.000000E+00  0.000000E+00  0.000000E+00
        29  0.000000E+00  0.000000E+00  0.000000E+00
        30  0.000000E+00  0.000000E+00  0.000000E+00
        31  0.000000E+00  0.000000E+00  0.000000E+00
        32  0.000000E+00  0.000000E+00  0.000000E+00
        44 -5.910689E-05 -3.463159E-03  4.480435E-04
        45  5.689358E-05 -2.561084E-03  7.846778E-04
        46 -4.796452E-05 -1.796103E-03  9.490907E-04
        47  1.308679E-04 -6.751633E-04  5.432396E-04
        48 -1.308659E-04 -6.751610E-04  5.432346E-04
        49  4.798078E-05 -1.796098E-03  9.490777E-04
        50 -5.686717E-05 -2.561084E-03  7.846508E-04
        51  5.919005E-05 -3.463143E-03  4.479896E-04
        74  3.163766E-04 -4.406833E-03 -4.944429E-04
        75  1.897026E-04 -2.969509E-03 -7.846591E-04
        76 -1.093744E-04 -1.598771E-03 -9.495037E-04
        77 -2.074523E-04 -5.273451E-04 -5.580681E-04
        89 -3.162901E-04 -4.406853E-03 -4.945018E-04
        90 -1.896763E-04 -2.969509E-03 -7.846875E-04
        91  1.093909E-04 -1.598776E-03 -9.495168E-04
        92  2.074542E-04 -5.273474E-04 -5.580732E-04
        98  0.000000E+00  0.000000E+00  0.000000E+00
        99  0.000000E+00  0.000000E+00  0.000000E+00
       100  0.000000E+00  0.000000E+00  0.000000E+00
       101  0.000000E+00  0.000000E+00  0.000000E+00
       102  0.000000E+00  0.000000E+00  0.000000E+00
       124  1.504353E-04 -2.965523E-03  4.294250E-04
       125  2.619164E-08 -3.588453E-03  4.479181E-04
       126 -1.503692E-04 -2.965528E-03  4.294388E-04
       127  1.875140E-08 -2.562476E-03  9.032679E-04
       128 -9.317426E-06 -1.952424E-03  9.478628E-04
       129  2.885221E-09 -1.813837E-03  9.412340E-04
       130  9.328216E-06 -1.952427E-03  9.478722E-04
       131  6.697642E-10 -7.363359E-04  5.562252E-04
       153  6.925236E-05 -3.636132E-03  1.912414E-04
       154 -1.201498E-04 -2.503317E-03 -2.131115E-05
       155 -6.413768E-05 -3.888105E-03 -2.376256E-04
       156 -1.198276E-04 -2.789001E-03 -6.450894E-05
       157 -2.048042E-05 -1.508861E-03  3.921508E-04
       158  8.822218E-05 -1.566868E-03 -2.930090E-05
       159  4.666471E-05 -1.475696E-03 -4.109230E-04
       160  3.970378E-05 -6.564432E-04  4.915173E-06
       182  1.150993E-04 -2.563629E-03 -4.707460E-04
       183  2.705416E-08 -4.352546E-03 -4.767818E-04
       184 -1.150311E-04 -2.563636E-03 -4.707626E-04
       185  1.854274E-08 -2.832612E-03 -8.741036E-04
       186 -4.399021E-05 -2.161644E-03 -9.824536E-04
       187  2.942615E-09 -1.831644E-03 -9.636004E-04
       188  4.400125E-05 -2.161647E-03 -9.824631E-04
       189  6.715374E-10 -7.199943E-04 -5.643904E-04
       211  6.423635E-05 -3.888113E-03 -2.376783E-04
       212  1.202581E-04 -2.503318E-03 -2.136962E-05
       213 -6.915521E-05 -3.636125E-03  1.911914E-04
       214  1.198504E-04 -2.789001E-03 -6.453870E-05
       215 -4.664513E-05 -1.475699E-03 -4.109375E-04
       216 -8.820003E-05 -1.566868E-03 -2.931371E-05
       217  2.049985E-05 -1.508859E-03  3.921364E-04
       218 -3.970140E-05 -6.564432E-04  4.912787E-06
       250  2.459397E-08 -4.079132E-03  1.739556E-04
       251  3.024189E-05 -2.571237E-03 -1.067289E-05
       252  2.309756E-08 -3.123240E-03 -1.567410E-05
       253 -3.016796E-05 -2.571237E-03 -1.066996E-05
       254  2.515045E-08 -4.410451E-03 -2.545578E-04
       255  2.172059E-08 -2.599044E-03 -3.184711E-05
       256  2.105334E-09 -1.607344E-03  3.956348E-04
       257 -4.100303E-05 -1.749251E-03 -1.202580E-05
       258  9.599699E-10 -1.789886E-03 -1.461852E-05
       259  4.101501E-05 -1.749251E-03 -1.201350E-05
       260  2.090174E-09 -1.622489E-03 -4.182119E-04
       261  1.780935E-09 -7.169102E-04 -2.017269E-06

 forces (fx,fy,fz) for set NALL and time  0.5000000E-02

         5  2.309328E+00 -4.176783E+00 -1.102222E+00
         6 -2.309381E+00 -4.176761E+00 -1.102304E+00
         7  3.472398E+00  1.066378E+00  1.270346E+00
         8 -3.472455E+00  1.066404E+00  1.270430E+00
        21 -2.804990E+00  5.573692E+00 -1.789682E+01
        22  1.063595E-05 -9.862293E+00 -6.629820E-01
        23  2.805041E+00  5.573803E+00 -1.789682E+01
        24 -4.628257E+00  1.710988E+01 -1.022088E+01
        25  8.565740E-01 -1.152648E+01 -4.556841E-01
        26  2.146258E+00  1.343887E+01  1.050254E+01
        27 -1.843664E+00 -4.285081E-01  1.759595E+01
        28  9.618404E-06 -1.618287E+00  1.780516E+00
        29  1.843721E+00 -4.283944E-01  1.759595E+01
        30 -2.146481E+00  1.343888E+01  1.050271E+01
        31 -8.567551E-01 -1.152648E+01 -4.554441E-01
        32  4.628037E+00  1.710986E+01 -1.022072E+01
        44  2.013656E+00  5.187004E+01  1.421302E+00
        45 -7.131294E-06 -6.080380E-01  1.525634E-01
        46  5.450888E-06  1.541473E+00 -4.634098E-01
        47 -1.911850E-06 -1.167011E+00  5.403038E-01
        48  2.089467E-06 -1.167010E+00  5.403044E-01
        49 -4.880341E-06  1.541474E+00 -4.634100E-01
        50  5.313656E-06 -6.080403E-01  1.525630E-01
        51 -2.013463E+00  5.187015E+01  1.420948E+00
        74 -7.472881E+00  1.769558E+01 -9.978095E-01
        75  6.456074E-07 -6.081234E-01 -1.525356E-01
        76 -1.637870E-06  1.541534E+00  4.634018E-01
        77  4.014529E-06 -1.167024E+00 -5.403001E-01
        89  7.473106E+00  1.769544E+01 -9.981493E-01
        90 -3.467958E-06 -6.081198E-01 -1.525355E-01
        91  2.119433E-06  1.541534E+00  4.634019E-01
        92 -3.430542E-06 -1.167026E+00 -5.403000E-01
        98  1.806889E-04  3.792249E+01 -1.716337E+01
        99 -2.293468E-01 -7.595921E+00  6.506191E-01
       100  1.066187E-04 -2.287100E+01 -3.788109E-01
       101  2.294266E-01 -7.595919E+00  6.507360E-01
       102  1.807604E-04  3.525972E+01  1.648996E+01
       124  1.717310E+01  1.975547E+01 -5.939214E-01
       125  6.850066E-05  1.112630E+02  2.944304E+00
       126 -1.717338E+01  1.975535E+01 -5.943552E-01
       127  4.398396E-07 -1.216077E+00  3.051177E-01
       128  4.557334E-06 -2.615777E+00  9.358650E-01
       129 -1.977970E-07  3.082946E+00 -9.268166E-01
       130 -5.016802E-06 -2.615776E+00  9.358641E-01
       131  5.295605E-07 -2.334021E+00  1.080606E+00
       153  1.151222E+01 -1.326720E+02 -2.279374E+00
       154 -2.903830E+00  9.862366E+01  4.085696E-01
       155  4.105056E+00 -1.083660E+02  1.426016E+00
       156 -1.171620E-05 -1.216153E+00 -2.478955E-05
       157 -7.607181E-06 -2.615785E+00  7.018891E-01
       158  5.803694E-06  3.083006E+00  1.159795E-05
       159 -1.389683E-07 -2.615848E+00 -7.018921E-01
       160 -1.208052E-06 -2.334038E+00 -3.363790E-06
       182  8.153938E+00  6.519853E+01  4.376534E-01
       183  8.887555E-05  5.170758E+01 -1.406861E+00
       184 -8.154238E+00  6.519842E+01  4.380279E-01
       185  1.291348E-06 -6.742573E+00 -3.050653E-01
       186  2.521118E-06 -8.142179E+00 -9.358385E-01
       187 -4.799350E-07 -2.443243E+00  9.268048E-01
       188 -2.878678E-06 -8.142177E+00 -9.358381E-01
       189  4.008575E-07 -7.860373E+00 -1.080595E+00
       211 -4.104747E+00 -1.083660E+02  1.425984E+00
       212  2.904451E+00  9.862364E+01  4.077249E-01
       213 -1.151190E+01 -1.326720E+02 -2.279346E+00
       214  9.290977E-06 -1.216154E+00 -2.298063E-05
       215 -1.520312E-06 -2.615846E+00 -7.018923E-01
       216 -4.644111E-06  3.083005E+00  1.076122E-05
       217  6.236489E-06 -2.615787E+00  7.018893E-01
       218  5.972305E-07 -2.334038E+00 -4.638783E-06
       250 -3.300290E-04 -2.933228E+02 -5.881515E+00
       251  5.200325E+00  8.819572E+01  5.532533E-01
       252  1.150726E-04  2.054135E+02  1.308854E+00
       253 -5.200951E+00  8.819571E+01  5.518532E-01
       254 -3.397338E-04 -2.681939E+02  1.533157E+00
       255  3.291444E-06 -2.432314E+00 -6.072733E-05
       256  8.448422E-07 -5.231571E+00  1.403768E+00
       257  7.240954E-06 -5.231633E+00 -2.667987E-05
       258 -6.528260E-07  6.166016E+00  2.392870E-05
       259 -6.920871E-06 -5.231632E+00 -2.695524E-05
       260  1.693370E-06 -5.231707E+00 -1.403780E+00
       261 -4.982048E-07 -4.668080E+00 -9.360836E-06

 displacements (vx,vy,vz) for set NALL and time  0.1000000E-01

         5  0.000000E+00  0.000000E+00  0.000000E+00
         6  0.000000E+00  0.000000E+00  0.000000E+00
         7  0.000000E+00  0.000000E+00  0.000000E+00
         8  0.000000E+00  0.000000E+00  0.000000E+00
        21  0.000000E+00  0.000000E+00  0.000000E+00
        22  0.000000E+00  0.000000E+00  0.000000E+00
        23  0.000000E+00  0.000000E+00  0.000000E+00
        24  0.000000E+00  0.000000E+00  0.000000E+00
        25  0.000000E+00  0.000000E+00  0.000000E+00
        26  0.000000E+00  0.000000E+00  0.000000E+00
        27  0.000000E+00  0.000000E+00  0.000000E+00
        28  0.000000E+00  0.000000E+00  0.000000E+00
        29  0.000000E+00  0.000000E+00  0.000000E+00
        30  0.000000E+00  0.000000E+00  0.000000E+00
        31  0.000000E+00  0.000000E+00  0.000000E+00
        32  0.000000E+00  0.000000E+00  0.000000E+00
        44 -1.519686E-04  1.607207E-03 -2.339720E-04
        45 -3.550085E-05  1.248567E-03 -3.770897E-04
        46  4.179163E-05  9.142590E-04 -4.321267E-04
        47 -5.387613E-05  3.699666E-04 -2.839665E-04
        48  5.387620E-05  3.699685E-04 -2.839780E-04
        49 -4.180692E-05  9.142561E-04 -4.321363E-04
        50  3.552964E-05  1.248561E-03 -3.770758E-04
        51  1.520201E-04  1.607121E-03 -2.339630E-04
        74  1.519767E-04  1.608581E-03  2.340028E-04
        75  3.546632E-05  1.249030E-03  3.769489E-04
        76 -4.157842E-05  9.141274E-04  4.323989E-04
        77  5.395391E-05  3.697094E-04  2.841167E-04
        89 -1.519820E-04  1.608583E-03  2.340051E-04
        90 -3.544111E-05  1.249052E-03  3.769705E-04
        91  4.155883E-05  9.141082E-04  4.323888E-04
        92 -5.395739E-05  3.697077E-04  2.841097E-04
        98  0.000000E+00  0.000000E+00  0.000000E+00
        99  0.000000E+00  0.000000E+00  0.000000E+00
       100  0.000000E+00  0.000000E+00  0.000000E+00
       101  0.000000E+00  0.000000E+00  0.000000E+00
       102  0.000000E+00  0.000000E+00  0.000000E+00
       124  4.010472E-06  1.479535E-03 -2.203367E-04
       125  4.555708E-08  1.767897E-03 -2.313861E-04
       126 -3.952319E-06  1.479554E-03 -2.203288E-04
       127 -6.909389E-10  1.301251E-03 -4.172912E-04
       128 -3.293752E-06  9.590227E-04 -4.634374E-04
       129  7.655194E-09  8.893900E-04 -4.721999E-04
       130  3.297166E-06  9.590291E-04 -4.634362E-04
       131 -2.343090E-09  3.754758E-04 -2.759937E-04
       153  1.248711E-04  1.916387E-03 -1.037524E-04
       154  3.241823E-07  1.692836E-03 -6.611566E-08
       155 -1.251598E-04  1.916121E-03  1.041567E-04
       156  1.707807E-07  1.406497E-03  1.486112E-07
       157 -2.489366E-05  7.928514E-04 -1.860288E-04
       158 -2.235355E-07  8.096953E-04  5.921936E-08
       159  2.480418E-05  7.930485E-04  1.861064E-04
       160 -8.409559E-08  3.082207E-04 -1.895458E-08
       182  4.721590E-06  1.479057E-03  2.207367E-04
       183  2.096716E-08  1.769552E-03  2.311627E-04
       184 -4.712810E-06  1.479030E-03  2.207028E-04
       185 -8.006103E-09  1.302006E-03  4.174862E-04
       186 -3.368781E-06  9.597552E-04  4.635553E-04
       187  7.508501E-09  8.899983E-04  4.723626E-04
       188  3.369408E-06  9.597509E-04  4.635587E-04
       189 -3.192431E-09  3.755763E-04  2.760613E-04
       211  1.251530E-04  1.916149E-03  1.041561E-04
       212 -2.871661E-07  1.692854E-03 -3.420087E-08
       213 -1.248368E-04  1.916337E-03 -1.037959E-04
       214 -1.909935E-07  1.406479E-03  1.441321E-07
       215 -2.480146E-05  7.930408E-04  1.861046E-04
       216  2.403962E-07  8.097057E-04  5.514417E-08
       217  2.489650E-05  7.928583E-04 -1.860215E-04
       218  8.204897E-08  3.082183E-04 -1.449266E-08
       250  6.881593E-09  1.908529E-03 -1.031319E-04
       251  2.839270E-07  1.209109E-03  4.099962E-08
       252 -3.906818E-08  1.542402E-03  4.420452E-07
       253 -2.994835E-07  1.209095E-03 -1.342546E-08
       254 -4.501268E-09  1.910120E-03  1.032679E-04
       255  7.489363E-09  1.374847E-03  2.014496E-07
       256 -2.088117E-09  7.835361E-04 -2.072068E-04
       257  3.548820E-08  9.139314E-04  7.355793E-08
       258 -1.053462E-08  8.124272E-04  3.376369E-08
       259 -3.977115E-08  9.139271E-04  8.469236E-08
       260 -2.487372E-09  7.836510E-04  2.073675E-04
       261  2.776148E-09  3.484426E-04 -3.494225E-08

 forces (fx,fy,fz) for set NALL and time  0.1000000E-01

         5 -1.673506E+00  3.898968E-01  9.238352E-01
         6  1.673569E+00  3.898185E-01  9.240643E-01
         7 -1.677666E+00  3.781740E-01 -9.227055E-01
         8  1.677639E+00  3.782349E-01 -9.228442E-01
        21  1.051044E+00 -1.654221E+00  8.957375E+00
        22 -2.110686E-04  7.397921E-01  1.409197E+00
        23 -1.050885E+00 -1.654122E+00  8.957448E+00
        24  1.172468E+00 -5.901078E+00  4.716522E+00
        25 -6.104586E-03  2.459909E+00  8.981021E-04
        26 -1.166237E+00 -5.893273E+00 -4.718414E+00
        27  1.050659E+00 -1.642813E+00 -8.959560E+00
        28 -2.575174E-04  7.286277E-01 -1.410145E+00
        29 -1.050438E+00 -1.642448E+00 -8.959403E+00
        30  1.166188E+00 -5.893404E+00 -4.718284E+00
        31  5.928623E-03  2.459761E+00  9.107653E-04
        32 -1.172552E+00 -5.900851E+00  4.716908E+00
        44 -6.181613E+00 -1.515367E+01 -7.552005E-01
        45  6.107603E-06  5.208353E-01 -1.306833E-01
        46 -4.673483E-06 -1.320401E+00  3.969495E-01
        47  1.646896E-06  9.996432E-01 -4.628157E-01
        48 -1.799040E-06  9.996421E-01 -4.628162E-01
        49  4.184758E-06 -1.320402E+00  3.969497E-01
        50 -4.550639E-06  5.208373E-01 -1.306830E-01
        51  6.181746E+00 -1.515357E+01 -7.543953E-01
        74  6.199701E+00 -1.508901E+01  7.454112E-01
        75 -5.475339E-07  5.209086E-01  1.306595E-01
        76  1.404555E-06 -1.320454E+00 -3.969427E-01
        77 -3.448524E-06  9.996540E-01  4.628125E-01
        89 -6.199384E+00 -1.508950E+01  7.460979E-01
        90  2.965120E-06  5.209054E-01  1.306595E-01
        91 -1.817058E-06 -1.320453E+00 -3.969428E-01
        92  2.948290E-06  9.996559E-01  4.628125E-01
        98  5.624003E-06 -1.288605E+01  8.225696E+00
        99 -6.838955E-03  3.910083E+00 -1.357495E-03
       100  4.642748E-04  5.325412E+00 -1.550491E-03
       101  6.563078E-03  3.910335E+00 -1.104817E-03
       102  1.611019E-04 -1.289545E+01 -8.221448E+00
       124 -6.553684E+00 -1.693301E+01  4.687000E-01
       125  7.378358E-04 -3.107289E+01 -1.399465E+00
       126  6.553032E+00 -1.693368E+01  4.691954E-01
       127 -3.767550E-07  1.041671E+00 -2.613589E-01
       128 -3.909423E-06  2.240633E+00 -8.016472E-01
       129  1.694261E-07 -2.640803E+00  7.938964E-01
       130  4.303001E-06  2.240632E+00 -8.016464E-01
       131 -4.536128E-07  1.999285E+00 -9.256298E-01
       153  4.565657E+00  5.180205E+01  1.176934E+00
       154  4.028681E-02 -3.313918E+01 -7.997491E-03
       155 -4.613219E+00  5.175035E+01 -1.160848E+00
       156  1.002988E-05  1.041737E+00  2.122531E-05
       157  6.521859E-06  2.240640E+00 -6.012271E-01
       158 -4.970968E-06 -2.640853E+00 -9.928991E-06
       159  1.167931E-07  2.240694E+00  6.012297E-01
       160  1.038706E-06  1.999300E+00  2.881443E-06
       182 -6.538014E+00 -1.701231E+01 -4.551991E-01
       183  6.620307E-04 -3.102398E+01  1.381612E+00
       184  6.537282E+00 -1.701328E+01 -4.564452E-01
       185 -1.106143E-06  1.069527E+00  2.613140E-01
       186 -2.162710E-06  2.268408E+00  8.016245E-01
       187  4.111008E-07 -2.613210E+00 -7.938863E-01
       188  2.468995E-06  2.268406E+00  8.016241E-01
       189 -3.433678E-07  2.027017E+00  9.256210E-01
       211  4.613268E+00  5.175234E+01 -1.161971E+00
       212 -4.044744E-02 -3.313893E+01 -6.766442E-03
       213 -4.565264E+00  5.180027E+01  1.174808E+00
       214 -7.952466E-06  1.041737E+00  1.967582E-05
       215  1.304525E-06  2.240692E+00  6.012298E-01
       216  3.977679E-06 -2.640853E+00 -9.212254E-06
       217 -5.347741E-06  2.240641E+00 -6.012273E-01
       218 -5.154850E-07  1.999300E+00  3.973581E-06
       250  1.734768E-04  1.047897E+02  2.306791E+00
       251  4.223132E-02 -4.725472E+01 -4.102765E-03
       252 -1.321471E-03 -6.979275E+01  1.029009E-02
       253 -4.146198E-02 -4.725546E+01 -6.801357E-03
       254 -3.634739E-04  1.048642E+02 -2.306684E+00
       255 -2.819389E-06  2.083480E+00  5.200265E-05
       256 -7.236741E-07  4.481281E+00 -1.202446E+00
       257 -6.205371E-06  4.481333E+00  2.284546E-05
       258  5.591927E-07 -5.281711E+00 -2.048557E-05
       259  5.931203E-06  4.481333E+00  2.308134E-05
       260 -1.450509E-06  4.481397E+00  1.202456E+00
       261  4.267553E-07  3.998604E+00  8.017804E-06

 displacements (vx,vy,vz) for set NALL and time  0.1500000E-01

         5  0.000000E+00  0.000000E+00  0.000000E+00
         6  0.000000E+00  0.000000E+00  0.000000E+00
         7  0.000000E+00  0.000000E+00  0.000000E+00
         8  0.000000E+00  0.000000E+00  0.000000E+00
        21  0.000000E+00  0.000000E+00  0.000000E+00
        22  0.000000E+00  0.000000E+00  0.000000E+00
        23  0.000000E+00  0.000000E+00  0.000000E+00
        24  0.000000E+00  0.000000E+00  0.000000E+00
        25  0.000000E+00  0.000000E+00  0.000000E+00
        26  0.000000E+00  0.000000E+00  0.000000E+00
        27  0.000000E+00  0.000000E+00  0.000000E+00
        28  0.000000E+00  0.000000E+00  0.000000E+00
        29  0.000000E+00  0.000000E+00  0.000000E+00
        30  0.000000E+00  0.000000E+00  0.000000E+00
        31  0.000000E+00  0.000000E+00  0.000000E+00
        32  0.000000E+00  0.000000E+00  0.000000E+00
        44  1.228768E-04 -1.272369E-03  1.853643E-04
        45  2.839475E-05 -9.894395E-04  2.986362E-04
        46 -3.335833E-05 -7.239310E-04  3.418968E-04
        47  4.254518E-05 -2.933078E-04  2.251169E-04
        48 -4.254379E-05 -2.932996E-04  2.250769E-04
        49  3.332622E-05 -7.239046E-04  3.418452E-04
        50 -2.825826E-05 -9.894870E-04  2.986803E-04
        51 -1.226953E-04 -1.272572E-03  1.853732E-04
        74 -1.249257E-04 -1.270006E-03 -1.853611E-04
        75 -2.953272E-05 -9.881098E-04 -2.986567E-04
        76  3.384076E-05 -7.245195E-04 -3.419075E-04
        77 -4.219594E-05 -2.936773E-04 -2.250919E-04
        89  1.250435E-04 -1.269816E-03 -1.853256E-04
        90  2.968349E-05 -9.880710E-04 -2.986131E-04
        91 -3.388964E-05 -7.245426E-04 -3.419618E-04
        92  4.219784E-05 -2.936885E-04 -2.251378E-04
        98  0.000000E+00  0.000000E+00  0.000000E+00
        99  0.000000E+00  0.000000E+00  0.000000E+00
       100  0.000000E+00  0.000000E+00  0.000000E+00
       101  0.000000E+00  0.000000E+00  0.000000E+00
       102  0.000000E+00  0.000000E+00  0.000000E+00
       124 -4.249162E-06 -1.172203E-03  1.746451E-04
       125  1.479261E-07 -1.400638E-03  1.833087E-04
       126  4.446888E-06 -1.172192E-03  1.747043E-04
       127  1.197858E-08 -1.030909E-03  3.302866E-04
       128  2.773300E-06 -7.594959E-04  3.670526E-04
       129  3.567791E-08 -7.046013E-04  3.742183E-04
       130 -2.742713E-06 -7.594913E-04  3.670610E-04
       131 -5.768108E-09 -2.974805E-04  2.186041E-04
       153 -1.010730E-04 -1.519460E-03  8.238717E-05
       154 -2.789479E-07 -1.347419E-03 -1.360996E-08
       155  1.018065E-04 -1.517321E-03 -8.236598E-05
       156  9.298659E-08 -1.114490E-03  1.226831E-07
       157  2.033700E-05 -6.284680E-04  1.472686E-04
       158  7.880851E-08 -6.417577E-04  7.244450E-08
       159 -2.044888E-05 -6.289722E-04 -1.472701E-04
       160 -2.353704E-08 -2.437888E-04  8.575321E-09
       182 -6.402186E-06 -1.173085E-03 -1.746664E-04
       183  1.625441E-07 -1.399393E-03 -1.832419E-04
       184  6.584268E-06 -1.173088E-03 -1.747533E-04
       185 -5.050213E-10 -1.030855E-03 -3.305089E-04
       186  3.265159E-06 -7.593269E-04 -3.670437E-04
       187  4.319988E-08 -7.048924E-04 -3.743113E-04
       188 -3.235501E-06 -7.593195E-04 -3.670451E-04
       189 -7.420919E-09 -2.975200E-04 -2.186295E-04
       211 -1.017462E-04 -1.517175E-03 -8.244171E-05
       212  4.114683E-07 -1.347441E-03  1.133110E-07
       213  1.011659E-04 -1.519633E-03  8.229749E-05
       214 -9.692024E-08 -1.114492E-03  9.346943E-08
       215  2.047076E-05 -6.289969E-04 -1.472783E-04
       216 -1.245476E-08 -6.417603E-04  3.576655E-08
       217 -2.030687E-05 -6.284444E-04  1.472618E-04
       218  2.673721E-08 -2.437889E-04  7.269338E-09
       250  4.206436E-08 -1.511280E-03  8.170433E-05
       251 -6.752082E-07 -9.572132E-04  1.149300E-07
       252 -9.208103E-08 -1.220917E-03 -9.425458E-08
       253  6.685769E-07 -9.572029E-04 -3.839755E-08
       254  5.156145E-08 -1.512407E-03 -8.171945E-05
       255  3.936632E-08 -1.090063E-03 -2.178948E-08
       256  7.055641E-09 -6.203408E-04  1.642770E-04
       257  1.651147E-07 -7.245032E-04 -3.958397E-08
       258 -1.633195E-08 -6.426980E-04  6.808701E-09
       259 -1.560599E-07 -7.245016E-04  3.684816E-10
       260  1.040308E-08 -6.201043E-04 -1.642663E-04
       261  1.222213E-08 -2.760044E-04  1.074037E-08

 forces (fx,fy,fz) for set NALL and time  0.1500000E-01

         5  1.328826E+00 -2.871909E-01 -7.366750E-01
         6 -1.328915E+00 -2.870920E-01 -7.360247E-01
         7  1.329170E+00 -2.903596E-01  7.362989E-01
         8 -1.329139E+00 -2.903615E-01  7.355047E-01
        21 -8.205931E-01  1.292939E+00 -7.094462E+00
        22 -8.344216E-04 -5.456057E-01 -1.126867E+00
        23  8.213800E-01  1.293671E+00 -7.094783E+00
        24 -9.122371E-01  4.638606E+00 -3.730595E+00
        25  7.579221E-03 -1.891534E+00  1.661912E-03
        26  9.084379E-01  4.638107E+00  3.728617E+00
        27 -8.179245E-01  1.301471E+00  7.096038E+00
        28 -9.456934E-04 -5.657980E-01  1.123636E+00
        29  8.187792E-01  1.302131E+00  7.096563E+00
        30 -9.083356E-01  4.637386E+00  3.729748E+00
        31 -8.175779E-03 -1.891524E+00  1.297154E-03
        32  9.121163E-01  4.639358E+00 -3.729376E+00
        44  4.948667E+00  1.184441E+01  5.944511E-01
        45 -4.852626E-06 -4.142314E-01  1.039353E-01
        46  3.723058E-06  1.050144E+00 -3.157028E-01
        47 -1.326574E-06 -7.950387E-01  3.680877E-01
        48  1.447576E-06 -7.950378E-01  3.680881E-01
        49 -3.334357E-06  1.050145E+00 -3.157029E-01
        50  3.614328E-06 -4.142330E-01  1.039350E-01
        51 -4.947641E+00  1.184565E+01  5.972436E-01
        74 -4.955176E+00  1.187558E+01 -5.958149E-01
        75  4.242379E-07 -4.142896E-01 -1.039163E-01
        76 -1.119341E-06  1.050186E+00  3.156973E-01
        77  2.760153E-06 -7.950473E-01 -3.680852E-01
        89  4.955877E+00  1.187460E+01 -5.925700E-01
        90 -2.347009E-06 -4.142871E-01 -1.039163E-01
        91  1.447422E-06  1.050186E+00  3.156974E-01
        92 -2.362307E-06 -7.950488E-01 -3.680852E-01
        98  1.890024E-04  1.016549E+01 -6.516073E+00
        99  1.080554E-02 -3.107061E+00 -2.004822E-03
       100  1.220769E-03 -4.174961E+00  7.182906E-04
       101 -1.144391E-02 -3.107244E+00 -1.841502E-03
       102 -3.929351E-05  1.018772E+01  6.518728E+00
       124  5.118002E+00  1.352813E+01 -3.702870E-01
       125  2.445174E-03  2.437372E+01  1.106344E+00
       126 -5.120454E+00  1.352580E+01 -3.673749E-01
       127  2.996329E-07 -8.284632E-01  2.078644E-01
       128  3.118216E-06 -1.782026E+00  6.375679E-01
       129 -1.347414E-07  2.100289E+00 -6.314035E-01
       130 -3.431246E-06 -1.782025E+00  6.375673E-01
       131  3.607677E-07 -1.590077E+00  7.361742E-01
       153 -3.764033E+00 -4.081386E+01 -9.250176E-01
       154 -7.941603E-02  2.591797E+01 -1.372616E-03
       155  3.806276E+00 -4.081021E+01  9.274318E-01
       156 -7.968579E-06 -8.285152E-01 -1.686832E-05
       157 -5.195794E-06 -1.782031E+00  4.781694E-01
       158  3.952998E-06  2.100329E+00  7.888854E-06
       159 -8.887911E-08 -1.782073E+00 -4.781714E-01
       160 -8.315748E-07 -1.590088E+00 -2.291778E-06
       182  5.097704E+00  1.345222E+01  3.689583E-01
       183  2.581451E-03  2.456696E+01 -1.103769E+00
       184 -5.100008E+00  1.344980E+01  3.649456E-01
       185  8.797309E-07 -8.300441E-01 -2.078286E-01
       186  1.725483E-06 -1.783542E+00 -6.375498E-01
       187 -3.269500E-07  2.098917E+00  6.313955E-01
       188 -1.969088E-06 -1.783541E+00 -6.375496E-01
       189  2.730872E-07 -1.591559E+00 -7.361671E-01
       211 -3.806123E+00 -4.080338E+01  9.214060E-01
       212  7.847172E-02  2.591789E+01  4.299065E-03
       213  3.764347E+00 -4.082082E+01 -9.311461E-01
       214  6.316347E-06 -8.285157E-01 -1.563597E-05
       215 -1.041537E-06 -1.782072E+00 -4.781715E-01
       216 -3.162998E-06  2.100329E+00  7.318810E-06
       217  4.261983E-06 -1.782032E+00  4.781695E-01
       218  4.154429E-07 -1.590088E+00 -3.160378E-06
       250 -1.178378E-04 -8.269201E+01 -1.833467E+00
       251 -1.061119E-01  3.753268E+01  6.570133E-03
       252 -4.415308E-03  5.502257E+01 -4.203813E-03
       253  1.087880E-01  3.753316E+01 -1.218033E-04
       254  4.163073E-04 -8.291263E+01  1.833388E+00
       255  2.242305E-06 -1.657036E+00 -4.133726E-05
       256  5.755458E-07 -3.564062E+00  9.563318E-01
       257  4.939320E-06 -3.564104E+00 -1.815816E-05
       258 -4.447236E-07  4.200662E+00  1.627669E-05
       259 -4.721286E-06 -3.564104E+00 -1.834577E-05
       260  1.153614E-06 -3.564154E+00 -9.563400E-01
       261 -3.394103E-07 -3.180180E+00 -6.375983E-06

 displacements (vx,vy,vz) for set NALL and time  0.2000000E-01

         5  0.000000E+00  0.000000E+00  0.000000E+00
         6  0.000000E+00  0.000000E+00  0.000000E+00
         7  0.000000E+00  0.000000E+00  0.000000E+00
         8  0.000000E+00  0.000000E+00  0.000000E+00
        21  0.000000E+00  0.000000E+00  0.000000E+00
        22  0.000000E+00  0.000000E+00  0.000000E+00
        23  0.000000E+00  0.000000E+00  0.000000E+00
        24  0.000000E+00  0.000000E+00  0.000000E+00
        25  0.000000E+00  0.000000E+00  0.000000E+00
        26  0.000000E+00  0.000000E+00  0.000000E+00
        27  0.000000E+00  0.000000E+00  0.000000E+00
        28  0.000000E+00  0.000000E+00  0.000000E+00
        29  0.000000E+00  0.000000E+00  0.000000E+00
        30  0.000000E+00  0.000000E+00  0.000000E+00
        31  0.000000E+00  0.000000E+00  0.000000E+00
        32  0.000000E+00  0.000000E+00  0.000000E+00
        44 -9.247330E-05  9.887612E-04 -1.437559E-04
        45 -2.161920E-05  7.678355E-04 -2.318092E-04
        46  2.538309E-05  5.617516E-04 -2.657235E-04
        47 -3.320384E-05  2.274007E-04 -1.745604E-04
        48  3.320339E-05  2.273953E-04 -1.745357E-04
        49 -2.534962E-05  5.617435E-04 -2.656952E-04
        50  2.154460E-05  7.678516E-04 -2.318428E-04
        51  9.244765E-05  9.888691E-04 -1.438071E-04
        74  8.974140E-05  9.907983E-04  1.437253E-04
        75  2.024751E-05  7.690208E-04  2.317570E-04
        76 -2.479754E-05  5.612771E-04  2.657737E-04
        77  3.358474E-05  2.270842E-04  1.745716E-04
        89 -8.983499E-05  9.907130E-04  1.437387E-04
        90 -2.030564E-05  7.689925E-04  2.317352E-04
        91  2.481458E-05  5.612935E-04  2.657951E-04
        92 -3.358404E-05  2.270875E-04  1.745885E-04
        98  0.000000E+00  0.000000E+00  0.000000E+00
        99  0.000000E+00  0.000000E+00  0.000000E+00
       100  0.000000E+00  0.000000E+00  0.000000E+00
       101  0.000000E+00  0.000000E+00  0.000000E+00
       102  0.000000E+00  0.000000E+00  0.000000E+00
       124  3.943214E-06  9.093782E-04 -1.353973E-04
       125 -7.883750E-08  1.086122E-03 -1.421801E-04
       126 -4.016680E-06  9.093732E-04 -1.354393E-04
       127  5.760557E-09  7.995715E-04 -2.563417E-04
       128 -2.339474E-06  5.897018E-04 -2.848411E-04
       129 -2.168279E-08  5.471543E-04 -2.901712E-04
       130  2.329093E-06  5.896967E-04 -2.848388E-04
       131  4.472641E-09  2.310070E-04 -1.697476E-04
       153  7.608749E-05  1.176049E-03 -6.384958E-05
       154 -7.211487E-07  1.039800E-03  7.236949E-09
       155 -7.523790E-05  1.178186E-03  6.384066E-05
       156 -8.690855E-08  8.646597E-04  1.003911E-07
       157 -1.514397E-05  4.876720E-04 -1.144210E-04
       158  1.457094E-07  4.976360E-04  2.478911E-08
       159  1.492271E-05  4.871888E-04  1.144023E-04
       160  2.594422E-08  1.895846E-04  9.641546E-09
       182  1.449356E-06  9.088525E-04  1.355153E-04
       183 -6.714720E-08  1.086634E-03  1.420010E-04
       184 -1.541872E-06  9.088546E-04  1.355461E-04
       185 -3.487651E-09  7.993184E-04  2.561153E-04
       186 -1.807765E-06  5.898261E-04  2.848373E-04
       187 -1.526444E-08  5.471358E-04  2.900952E-04
       188  1.795398E-06  5.898253E-04  2.848411E-04
       189  3.197376E-09  2.310786E-04  1.697547E-04
       211  7.519001E-05  1.178104E-03  6.388642E-05
       212  6.547039E-07  1.039786E-03 -5.758002E-08
       213 -7.610052E-05  1.176126E-03 -6.381521E-05
       214  9.965390E-08  8.646610E-04  1.120566E-07
       215 -1.493666E-05  4.872014E-04  1.144035E-04
       216 -1.781312E-07  4.976330E-04  3.981173E-08
       217  1.513776E-05  4.876604E-04 -1.144213E-04
       218 -2.582378E-08  1.895849E-04  7.949870E-09
       250 -2.004907E-08  1.174921E-03 -6.339824E-05
       251 -5.249279E-07  7.431732E-04 -8.876127E-08