
 displacements (vx,vy,vz) for set NALL and time  0.5000000E-02

         5  0.000000E+00  0.000000E+00  0.000000E+00
         6  0.000000E+00  0.000000E+00  0.000000E+00
         7  0.000000E+00  0.000000E+00  0.000000E+00
         8  0.000000E+00  0.000000E+00  0.000000E+00
        21  0.000000E+00  0.000000E+00  0.000000E+00
        22  0.000000E+00  0.000000E+00  0.000000E+00
        23  0.000000E+00  0.000000E+00  0.000000E+00
        24  0.000000E+00  0.000000E+00  0.000000E+00
        25  0.000000E+00  0.000000E+00  0.000000E+00
        26  0.000000E+00  0.000000E+00  0.000000E+00
        27  0.000000E+00  0.000000E+00  0.000000E+00
        28  0.000000E+00  0.000000E+00  0.000000E+00
        29  0.000000E+00  0.000000E+00  0.000000E+00
        30  0.000000E+00  0.000000E+00  0.000000E+00
        31  0.000000E+00  0.000000E+00  0.000000E+00
        32  0.000000E+00  0.000000E+00  0.000000E+00
        44 -5.930798E-05 -3.464043E-03  4.484889E-04
        45  5.668753E-05 -2.561147E-03  7.854905E-04
        46 -4.798604E-05 -1.796292E-03  9.488400E-04
        47  1.308127E-04 -6.753054E-04  5.431565E-04
        48 -1.308652E-04 -6.753331E-04  5.432469E-04
        49  4.783050E-05 -1.796287E-03  9.490022E-04
        50 -5.706718E-05 -2.561199E-03  7.857196E-04
        51  5.871735E-05 -3.464004E-03  4.487351E-04
        74  3.162374E-04 -4.405920E-03 -4.948716E-04
        75  1.898347E-04 -2.969156E-03 -7.853524E-04
        76 -1.096764E-04 -1.599479E-03 -9.498065E-04
        77 -2.074672E-04 -5.276967E-04 -5.581906E-04
        89 -3.168543E-04 -4.405917E-03 -4.946238E-04
        90 -1.901713E-04 -2.969151E-03 -7.851557E-04
        91  1.094870E-04 -1.599448E-03 -9.496640E-04
        92  2.074201E-04 -5.276749E-04 -5.581268E-04
        98  0.000000E+00  0.000000E+00  0.000000E+00
        99  0.000000E+00  0.000000E+00  0.000000E+00
       100  0.000000E+00  0.000000E+00  0.000000E+00
       101  0.000000E+00  0.000000E+00  0.000000E+00
       102  0.000000E+00  0.000000E+00  0.000000E+00
       124  1.485315E-04 -2.966447E-03  4.296987E-04
       125 -3.379164E-07 -3.588057E-03  4.489957E-04
       126 -1.491562E-04 -2.966453E-03  4.295328E-04
       127 -1.614839E-07 -2.562646E-03  9.030472E-04
       128 -9.062518E-06 -1.952489E-03  9.480816E-04
       129 -9.164373E-08 -1.814118E-03  9.414158E-04
       130  8.895181E-06 -1.952494E-03  9.480089E-04
       131 -1.686867E-08 -7.363813E-04  5.562856E-04
       153  6.897912E-05 -3.637241E-03  1.910359E-04
       154 -1.195204E-04 -2.505682E-03 -2.110860E-05
       155 -6.513314E-05 -3.889692E-03 -2.380783E-04
       156 -1.197437E-04 -2.788719E-03 -6.449834E-05
       157 -2.052957E-05 -1.509402E-03  3.921087E-04
       158  8.791384E-05 -1.567540E-03 -2.938575E-05
       159  4.662381E-05 -1.476158E-03 -4.110173E-04
       160  3.956744E-05 -6.564820E-04  4.831975E-06
       182  1.146157E-04 -2.565068E-03 -4.711249E-04
       183 -2.456584E-07 -4.350170E-03 -4.768830E-04
       184 -1.151667E-04 -2.565075E-03 -4.710547E-04
       185 -1.898051E-07 -2.832088E-03 -8.738115E-04
       186 -4.406866E-05 -2.161473E-03 -9.825706E-04
       187 -7.003344E-08 -1.832196E-03 -9.636380E-04
       188  4.390664E-05 -2.161457E-03 -9.824904E-04
       189 -1.996920E-08 -7.202833E-04 -5.644326E-04
       211  6.458826E-05 -3.889728E-03 -2.378933E-04
       212  1.190356E-04 -2.505776E-03 -2.091542E-05
       213 -6.953346E-05 -3.637273E-03  1.913250E-04
       214  1.193330E-04 -2.788689E-03 -6.430325E-05
       215 -4.679627E-05 -1.476156E-03 -4.108608E-04
       216 -8.805980E-05 -1.567564E-03 -2.922591E-05
       217  2.037775E-05 -1.509410E-03  3.922559E-04
       218 -3.963297E-05 -6.564789E-04  4.921320E-06
       250 -3.472719E-07 -4.078804E-03  1.748210E-04
       251  2.998230E-05 -2.571821E-03 -1.063727E-05
       252 -3.427587E-07 -3.122593E-03 -1.620576E-05
       253 -3.056775E-05 -2.571766E-03 -1.081798E-05
       254 -2.929994E-07 -4.407976E-03 -2.543927E-04
       255 -1.628849E-07 -2.600078E-03 -3.203525E-05
       256 -9.877729E-08 -1.607160E-03  3.956268E-04
       257 -4.109980E-05 -1.749406E-03 -1.197359E-05
       258 -1.051384E-07 -1.789323E-03 -1.453897E-05
       259  4.092424E-05 -1.749396E-03 -1.203294E-05
       260 -8.977985E-08 -1.622724E-03 -4.183353E-04
       261 -1.988338E-08 -7.168397E-04 -1.947752E-06

 forces (fx,fy,fz) for set NALL and time  0.5000000E-02

         5  2.297677E+00 -4.177993E+00 -1.103259E+00
         6 -2.297396E+00 -4.178060E+00 -1.103677E+00
         7  3.457934E+00  1.052242E+00  1.268064E+00
         8 -3.457240E+00  1.051752E+00  1.267841E+00
        21 -2.780773E+00  5.576815E+00 -1.789619E+01
        22  3.743207E-04 -9.857357E+00 -6.671793E-01
        23  2.779815E+00  5.577011E+00 -1.789453E+01
        24 -4.629516E+00  1.710747E+01 -1.021796E+01
        25  8.507248E-01 -1.152686E+01 -4.573574E-01
        26  2.160073E+00  1.344803E+01  1.050366E+01
        27 -1.824461E+00 -4.094537E-01  1.760040E+01
        28  1.441385E-04 -1.619907E+00  1.783794E+00
        29  1.823643E+00 -4.097914E-01  1.759900E+01
        30 -2.159804E+00  1.344808E+01  1.050191E+01
        31 -8.502838E-01 -1.152661E+01 -4.565624E-01
        32  4.629289E+00  1.710727E+01 -1.022002E+01
        44  1.945763E+00  5.186713E+01  1.434189E+00
        45 -7.131293E-06 -6.080380E-01  1.525634E-01
        46  5.450882E-06  1.541473E+00 -4.634098E-01
        47 -1.911845E-06 -1.167011E+00  5.403038E-01
        48  2.089465E-06 -1.167010E+00  5.403044E-01
        49 -4.880352E-06  1.541474E+00 -4.634100E-01
        50  5.313676E-06 -6.080403E-01  1.525630E-01
        51 -1.945598E+00  5.186769E+01  1.432128E+00
        74 -7.376535E+00  1.778943E+01 -9.955759E-01
        75  6.456231E-07 -6.081234E-01 -1.525356E-01
        76 -1.637880E-06  1.541534E+00  4.634018E-01
        77  4.014527E-06 -1.167024E+00 -5.403001E-01
        89  7.375850E+00  1.778976E+01 -9.949755E-01
        90 -3.467954E-06 -6.081198E-01 -1.525355E-01
        91  2.119426E-06  1.541534E+00  4.634019E-01
        92 -3.430537E-06 -1.167026E+00 -5.403000E-01
        98  8.304598E-04  3.791126E+01 -1.717317E+01
        99 -2.288178E-01 -7.589323E+00  6.499523E-01
       100  1.289684E-03 -2.286772E+01 -3.763196E-01
       101  2.270457E-01 -7.590209E+00  6.530556E-01
       102 -3.737829E-05  3.522764E+01  1.649064E+01
       124  1.701642E+01  1.973050E+01 -6.148251E-01
       125 -3.430156E-04  1.112684E+02  2.964099E+00
       126 -1.701601E+01  1.973003E+01 -6.182339E-01
       127  4.398593E-07 -1.216077E+00  3.051177E-01
       128  4.557344E-06 -2.615777E+00  9.358650E-01
       129 -1.978135E-07  3.082946E+00 -9.268166E-01
       130 -5.016792E-06 -2.615776E+00  9.358641E-01
       131  5.295632E-07 -2.334021E+00  1.080606E+00
       153  1.150387E+01 -1.326639E+02 -2.294969E+00
       154 -2.847353E+00  9.863560E+01  4.230013E-01
       155  4.019079E+00 -1.084431E+02  1.421337E+00
       156 -1.171617E-05 -1.216153E+00 -2.478954E-05
       157 -7.607170E-06 -2.615785E+00  7.018891E-01
       158  5.803677E-06  3.083006E+00  1.159795E-05
       159 -1.389577E-07 -2.615848E+00 -7.018921E-01
       160 -1.208049E-06 -2.334038E+00 -3.363787E-06
       182  8.034878E+00  6.507064E+01  4.293559E-01
       183  1.570247E-04  5.175719E+01 -1.404970E+00
       184 -8.033983E+00  6.507002E+01  4.288481E-01
       185  1.291368E-06 -6.742573E+00 -3.050653E-01
       186  2.521127E-06 -8.142179E+00 -9.358385E-01
       187 -4.799515E-07 -2.443243E+00  9.268048E-01
       188 -2.878666E-06 -8.142177E+00 -9.358381E-01
       189  4.008602E-07 -7.860373E+00 -1.080595E+00
       211 -4.018669E+00 -1.084431E+02  1.420965E+00
       212  2.847966E+00  9.863507E+01  4.202095E-01
       213 -1.150370E+01 -1.326645E+02 -2.291233E+00
       214  9.290996E-06 -1.216154E+00 -2.298064E-05
       215 -1.520301E-06 -2.615846E+00 -7.018923E-01
       216 -4.644127E-06  3.083005E+00  1.076122E-05
       217  6.236499E-06 -2.615787E+00  7.018893E-01
       218  5.972340E-07 -2.334038E+00 -4.638786E-06
       250 -2.098978E-03 -2.932488E+02 -5.834091E+00
       251  5.218312E+00  8.814537E+01  5.419742E-01
       252 -1.232147E-03  2.054058E+02  1.281358E+00
       253 -5.217187E+00  8.814740E+01  5.353920E-01
       254 -1.012196E-04 -2.679787E+02  1.563926E+00
       255  3.291483E-06 -2.432314E+00 -6.072733E-05
       256  8.448628E-07 -5.231571E+00  1.403768E+00
       257  7.240973E-06 -5.231633E+00 -2.667988E-05
       258 -6.528591E-07  6.166016E+00  2.392870E-05
       259 -6.920849E-06 -5.231632E+00 -2.695523E-05
       260  1.693390E-06 -5.231707E+00 -1.403780E+00
       261 -4.981991E-07 -4.668080E+00 -9.360837E-06

 displacements (vx,vy,vz) for set NALL and time  0.1000000E-01

         5  0.000000E+00  0.000000E+00  0.000000E+00
         6  0.000000E+00  0.000000E+00  0.000000E+00
         7  0.000000E+00  0.000000E+00  0.000000E+00
         8  0.000000E+00  0.000000E+00  0.000000E+00
        21  0.000000E+00  0.000000E+00  0.000000E+00
        22  0.000000E+00  0.000000E+00  0.000000E+00
        23  0.000000E+00  0.000000E+00  0.000000E+00
        24  0.000000E+00  0.000000E+00  0.000000E+00
        25  0.000000E+00  0.000000E+00  0.000000E+00
        26  0.000000E+00  0.000000E+00  0.000000E+00
        27  0.000000E+00  0.000000E+00  0.000000E+00
        28  0.000000E+00  0.000000E+00  0.000000E+00
        29  0.000000E+00  0.000000E+00  0.000000E+00
        30  0.000000E+00  0.000000E+00  0.000000E+00
        31  0.000000E+00  0.000000E+00  0.000000E+00
        32  0.000000E+00  0.000000E+00  0.000000E+00
        44 -1.541338E-04  1.605956E-03 -2.339606E-04
        45 -3.657616E-05  1.247360E-03 -3.773269E-04
        46  4.187624E-05  9.148172E-04 -4.323089E-04
        47 -5.357019E-05  3.703394E-04 -2.840468E-04
        48  5.354812E-05  3.703233E-04 -2.840068E-04
        49 -4.195366E-05  9.148096E-04 -4.322296E-04
        50  3.638322E-05  1.247347E-03 -3.772347E-04
        51  1.537359E-04  1.606082E-03 -2.338636E-04
        74  1.457709E-04  1.612677E-03  2.341071E-04
        75  3.229956E-05  1.251381E-03  3.775827E-04
        76 -4.031374E-05  9.134257E-04  4.322990E-04
        77  5.480923E-05  3.691684E-04  2.840250E-04
        89 -1.461250E-04  1.612621E-03  2.342370E-04
        90 -3.252917E-05  1.251396E-03  3.776900E-04
        91  4.025435E-05  9.134310E-04  4.324042E-04
        92 -5.483284E-05  3.691832E-04  2.840811E-04
        98  0.000000E+00  0.000000E+00  0.000000E+00
        99  0.000000E+00  0.000000E+00  0.000000E+00
       100  0.000000E+00  0.000000E+00  0.000000E+00
       101  0.000000E+00  0.000000E+00  0.000000E+00
       102  0.000000E+00  0.000000E+00  0.000000E+00
       124  7.976083E-06  1.480840E-03 -2.204911E-04
       125 -1.685865E-07  1.766673E-03 -2.312676E-04
       126 -8.329704E-06  1.480785E-03 -2.204843E-04
       127 -1.078444E-07  1.301580E-03 -4.173619E-04
       128 -4.149096E-06  9.588956E-04 -4.634612E-04
       129 -3.298972E-08  8.896018E-04 -4.723753E-04
       130  4.075631E-06  9.588975E-04 -4.635102E-04
       131 -6.237422E-09  3.754267E-04 -2.760011E-04
       153  1.255054E-04  1.914545E-03 -1.040306E-04
       154 -1.980097E-06  1.695298E-03  1.109888E-07
       155 -1.232050E-04  1.921532E-03  1.039122E-04
       156 -2.202907E-07  1.406873E-03  5.269579E-07
       157 -2.521271E-05  7.936695E-04 -1.860455E-04
       158  3.195022E-07  8.097041E-04  1.513876E-07
       159  2.433406E-05  7.922228E-04  1.860473E-04
       160 -1.535864E-08  3.080700E-04 -2.465699E-08
       182  3.309315E-07  1.478647E-03  2.205216E-04
       183 -2.125792E-07  1.769041E-03  2.317458E-04
       184 -7.055770E-07  1.478646E-03  2.206442E-04
       185 -8.289355E-08  1.301302E-03  4.168469E-04
       186 -2.542577E-06  9.599023E-04  4.636888E-04
       187 -5.080582E-08  8.902350E-04  4.722150E-04
       188  2.460372E-06  9.599000E-04  4.637290E-04
       189 -5.071256E-09  3.758572E-04  2.760802E-04
       211  1.228282E-04  1.921503E-03  1.041445E-04
       212  1.557117E-06  1.695330E-03  2.781778E-07
       213 -1.259034E-04  1.914635E-03 -1.038635E-04
       214  4.825145E-08  1.406864E-03  6.571668E-07
       215 -2.442558E-05  7.922289E-04  1.861250E-04
       216 -4.335794E-07  8.097043E-04  2.375654E-07
       217  2.511214E-05  7.936631E-04 -1.859732E-04
       218 -1.041968E-08  3.080690E-04  1.246245E-08
       250 -1.485100E-07  1.911338E-03 -1.029862E-04
       251 -2.333512E-06  1.208731E-03  1.865960E-07
       252 -1.286362E-07  1.543615E-03  1.229020E-07
       253  1.996921E-06  1.208713E-03  1.536543E-07
       254 -1.777711E-07  1.906868E-03  1.037064E-04
       255 -1.049767E-07  1.375966E-03  6.883676E-08
       256 -3.419557E-08  7.826797E-04 -2.072473E-04
       257  4.673440E-07  9.141386E-04  7.997345E-08
       258 -3.238704E-08  8.117079E-04  1.089210E-07
       259 -5.541394E-07  9.141392E-04  2.542300E-08
       260 -4.108712E-08  7.842098E-04  2.074021E-04
       261 -1.293982E-08  3.482048E-04 -4.364856E-09

 forces (fx,fy,fz) for set NALL and time  0.1000000E-01

         5 -1.665491E+00  3.852261E-01  9.226453E-01
         6  1.665778E+00  3.851194E-01  9.227270E-01
         7 -1.657477E+00  3.827254E-01 -9.238748E-01
         8  1.657640E+00  3.826809E-01 -9.235051E-01
        21  1.026582E+00 -1.654137E+00  8.958797E+00
        22  2.395115E-04  7.505864E-01  1.408930E+00
        23 -1.027159E+00 -1.654529E+00  8.959172E+00
        24  1.167213E+00 -5.893671E+00  4.717007E+00
        25  3.429266E-02  2.444319E+00  4.384498E-03
        26 -1.191952E+00 -5.900266E+00 -4.719639E+00
        27  1.033691E+00 -1.642132E+00 -8.953955E+00
        28  4.572411E-04  6.961740E-01 -1.420021E+00
        29 -1.034449E+00 -1.642453E+00 -8.954836E+00
        30  1.192153E+00 -5.900038E+00 -4.721070E+00
        31 -3.353371E-02  2.444300E+00  4.431124E-03
        32 -1.166660E+00 -5.893821E+00  4.715666E+00
        44 -6.138578E+00 -1.512404E+01 -7.494110E-01
        45  6.107620E-06  5.208353E-01 -1.306833E-01
        46 -4.673467E-06 -1.320401E+00  3.969495E-01
        47  1.646872E-06  9.996432E-01 -4.628157E-01
        48 -1.799026E-06  9.996421E-01 -4.628162E-01
        49  4.184799E-06 -1.320402E+00  3.969497E-01
        50 -4.550723E-06  5.208373E-01 -1.306830E-01
        51  6.137996E+00 -1.512415E+01 -7.487836E-01
        74  6.057767E+00 -1.510142E+01  7.562310E-01
        75 -5.475789E-07  5.209086E-01  1.306595E-01
        76  1.404587E-06 -1.320454E+00 -3.969427E-01
        77 -3.448519E-06  9.996540E-01  4.628125E-01
        89 -6.058248E+00 -1.510116E+01  7.540282E-01
        90  2.965099E-06  5.209054E-01  1.306595E-01
        91 -1.817035E-06 -1.320453E+00 -3.969428E-01
        92  2.948275E-06  9.996559E-01  4.628125E-01
        98 -4.175848E-04 -1.290604E+01  8.229606E+00
        99  4.174297E-02  3.935674E+00 -5.777407E-03
       100 -8.805782E-05  5.287566E+00 -2.105089E-03
       101 -4.226524E-02  3.935944E+00 -5.109777E-03
       102 -6.115711E-07 -1.283732E+01 -8.219670E+00
       124 -6.392534E+00 -1.690852E+01  4.600074E-01
       125 -7.525692E-04 -3.124231E+01 -1.392492E+00
       126  6.394013E+00 -1.690834E+01  4.621232E-01
       127 -3.768204E-07  1.041671E+00 -2.613589E-01
       128 -3.909459E-06  2.240633E+00 -8.016472E-01
       129  1.694816E-07 -2.640803E+00  7.938964E-01
       130  4.302967E-06  2.240632E+00 -8.016464E-01
       131 -4.536221E-07  1.999285E+00 -9.256298E-01
       153  4.626862E+00  5.174343E+01  1.164772E+00
       154 -3.183177E-01 -3.302639E+01  5.144869E-03
       155 -4.401028E+00  5.180831E+01 -1.175950E+00
       156  1.002974E-05  1.041737E+00  2.122528E-05
       157  6.521819E-06  2.240640E+00 -6.012271E-01
       158 -4.970889E-06 -2.640853E+00 -9.928966E-06
       159  1.167562E-07  2.240694E+00  6.012297E-01
       160  1.038713E-06  1.999300E+00  2.881436E-06
       182 -6.448877E+00 -1.704690E+01 -4.755806E-01
       183 -9.569548E-04 -3.073208E+01  1.399846E+00
       184  6.450209E+00 -1.704620E+01 -4.724084E-01
       185 -1.106209E-06  1.069527E+00  2.613140E-01
       186 -2.162736E-06  2.268408E+00  8.016245E-01
       187  4.111565E-07 -2.613210E+00 -7.938863E-01
       188  2.468951E-06  2.268406E+00  8.016241E-01
       189 -3.433773E-07  2.027017E+00  9.256210E-01
       211  4.400523E+00  5.180640E+01 -1.171490E+00
       212  3.176319E-01 -3.302641E+01  4.223893E-03
       213 -4.627608E+00  5.174528E+01  1.165434E+00
       214 -7.952467E-06  1.041737E+00  1.967584E-05
       215  1.304491E-06  2.240692E+00  6.012298E-01
       216  3.977714E-06 -2.640853E+00 -9.212274E-06
       217 -5.347772E-06  2.240641E+00 -6.012273E-01
       218 -5.155134E-07  1.999300E+00  3.973592E-06
       250  2.796801E-04  1.050353E+02  2.314766E+00
       251 -3.953759E-01 -4.743531E+01 -3.844456E-03
       252  8.077015E-04 -6.952597E+01 -2.609140E-03
       253  3.959298E-01 -4.743530E+01 -1.969882E-03
       254 -3.918371E-05  1.043492E+02 -2.285841E+00
       255 -2.819522E-06  2.083480E+00  5.200265E-05
       256 -7.237437E-07  4.481281E+00 -1.202446E+00
       257 -6.205426E-06  4.481333E+00  2.284548E-05
       258  5.593045E-07 -5.281711E+00 -2.048558E-05
       259  5.931115E-06  4.481333E+00  2.308132E-05
       260 -1.450580E-06  4.481397E+00  1.202456E+00
       261  4.267357E-07  3.998604E+00  8.017807E-06

 displacements (vx,vy,vz) for set NALL and time  0.1500000E-01

         5  0.000000E+00  0.000000E+00  0.000000E+00
         6  0.000000E+00  0.000000E+00  0.000000E+00
         7  0.000000E+00  0.000000E+00  0.000000E+00
         8  0.000000E+00  0.000000E+00  0.000000E+00
        21  0.000000E+00  0.000000E+00  0.000000E+00
        22  0.000000E+00  0.000000E+00  0.000000E+00
        23  0.000000E+00  0.000000E+00  0.000000E+00
        24  0.000000E+00  0.000000E+00  0.000000E+00
        25  0.000000E+00  0.000000E+00  0.000000E+00
        26  0.000000E+00  0.000000E+00  0.000000E+00
        27  0.000000E+00  0.000000E+00  0.000000E+00
        28  0.000000E+00  0.000000E+00  0.000000E+00
        29  0.000000E+00  0.000000E+00  0.000000E+00
        30  0.000000E+00  0.000000E+00  0.000000E+00
        31  0.000000E+00  0.000000E+00  0.000000E+00
        32  0.000000E+00  0.000000E+00  0.000000E+00
        44  1.166360E-04 -1.277982E-03  1.852292E-04
        45  2.622185E-05 -9.911756E-04  2.986564E-04
        46 -3.177421E-05 -7.227557E-04  3.423737E-04
        47  4.330998E-05 -2.923704E-04  2.249021E-04
        48 -4.329804E-05 -2.923587E-04  2.248594E-04
        49  3.175678E-05 -7.227286E-04  3.423174E-04
        50 -2.603629E-05 -9.912174E-04  2.986509E-04
        51 -1.163304E-04 -1.278211E-03  1.851761E-04
        74 -1.130938E-04 -1.278988E-03 -1.855492E-04
        75 -2.436545E-05 -9.919246E-04 -2.988519E-04
        76  3.098041E-05 -7.226561E-04 -3.423939E-04
        77 -4.379340E-05 -2.921707E-04 -2.248449E-04
        89  1.133111E-04 -1.278554E-03 -1.853315E-04
        90  2.457182E-05 -9.919485E-04 -2.987628E-04
        91 -3.101738E-05 -7.226508E-04 -3.425266E-04
        92  4.379988E-05 -2.921826E-04 -2.249231E-04
        98  0.000000E+00  0.000000E+00  0.000000E+00
        99  0.000000E+00  0.000000E+00  0.000000E+00
       100  0.000000E+00  0.000000E+00  0.000000E+00
       101  0.000000E+00  0.000000E+00  0.000000E+00
       102  0.000000E+00  0.000000E+00  0.000000E+00
       124 -4.223592E-06 -1.170788E-03  1.744418E-04
       125  2.116307E-07 -1.401771E-03  1.832142E-04
       126  4.538945E-06 -1.170774E-03  1.744594E-04
       127  4.136024E-08 -1.030868E-03  3.302931E-04
       128  2.722732E-06 -7.600005E-04  3.670712E-04
       129  4.732717E-08 -7.044489E-04  3.738220E-04
       130 -2.672057E-06 -7.599937E-04  3.670976E-04
       131 -3.842663E-09 -2.974487E-04  2.186510E-04
       153 -9.762560E-05 -1.517661E-03  8.231837E-05
       154  1.594164E-06 -1.341827E-03  3.725587E-08
       155  9.608003E-05 -1.519379E-03 -8.228517E-05
       156  4.447579E-07 -1.115278E-03 -1.008991E-07
       157  1.962035E-05 -6.275851E-04  1.473899E-04
       158 -3.318645E-07 -6.403668E-04 -7.902029E-09
       159 -1.919907E-05 -6.272652E-04 -1.473558E-04
       160 -1.248214E-07 -2.439112E-04  3.427016E-09
       182 -1.675651E-06 -1.170972E-03 -1.744618E-04
       183  1.874117E-07 -1.400038E-03 -1.831736E-04
       184  1.931415E-06 -1.170838E-03 -1.745236E-04
       185  2.978276E-08 -1.029860E-03 -3.298594E-04
       186  2.138906E-06 -7.599799E-04 -3.671199E-04
       187  4.105780E-08 -7.049675E-04 -3.737068E-04
       188 -2.104291E-06 -7.599622E-04 -3.671455E-04
       189 -5.294840E-09 -2.977994E-04 -2.186985E-04
       211 -9.590707E-05 -1.519109E-03 -8.250595E-05
       212 -1.337296E-06 -1.341822E-03  1.433506E-07
       213  9.784158E-05 -1.517839E-03  8.220976E-05
       214 -4.016070E-07 -1.115253E-03 -1.577750E-07
       215  1.924398E-05 -6.272813E-04 -1.473635E-04
       216  4.275761E-07 -6.403824E-04 -7.057787E-08
       217 -1.956792E-05 -6.275674E-04  1.473655E-04
       218  1.337080E-07 -2.439106E-04 -1.669712E-08
       250  1.008760E-07 -1.516310E-03  8.156921E-05
       251  3.148377E-07 -9.566824E-04  2.070470E-07
       252 -4.920651E-08 -1.226142E-03  6.990784E-08
       253 -2.231463E-07 -9.566902E-04  4.674401E-08
       254  7.755637E-08 -1.513635E-03 -8.169522E-05
       255  6.573558E-08 -1.089818E-03 -1.389936E-08
       256  1.852857E-08 -6.200614E-04  1.640960E-04
       257 -1.473727E-08 -7.241657E-04 -4.990870E-08
       258 -4.636537E-09 -6.430853E-04 -1.645579E-08
       259  5.077459E-08 -7.241572E-04  7.396393E-09
       260  1.746914E-08 -6.207217E-04 -1.640924E-04
       261  1.399133E-08 -2.756615E-04  1.714497E-08

 forces (fx,fy,fz) for set NALL and time  0.1500000E-01

         5  1.311140E+00 -2.771548E-01 -7.360275E-01
         6 -1.311283E+00 -2.771145E-01 -7.356848E-01
         7  1.297076E+00 -2.865838E-01  7.355948E-01
         8 -1.297264E+00 -2.865708E-01  7.339747E-01
        21 -8.031532E-01  1.282730E+00 -7.091705E+00
        22 -9.609557E-04 -5.578799E-01 -1.125374E+00
        23  8.042336E-01  1.283776E+00 -7.091880E+00
        24 -9.306378E-01  4.641953E+00 -3.736114E+00
        25 -1.909391E-02 -1.890685E+00 -1.261352E-03
        26  9.546355E-01  4.646525E+00  3.737101E+00
        27 -7.980234E-01  1.297674E+00  7.090250E+00
        28 -1.122748E-03 -5.547482E-01  1.127670E+00
        29  7.992466E-01  1.297887E+00  7.091206E+00
        30 -9.543986E-01  4.645649E+00  3.739786E+00
        31  1.811005E-02 -1.890304E+00 -2.172678E-03
        32  9.303419E-01  4.642597E+00 -3.734636E+00
        44  4.786114E+00  1.179870E+01  5.997434E-01
        45 -4.852716E-06 -4.142314E-01  1.039353E-01
        46  3.723051E-06  1.050144E+00 -3.157028E-01
        47 -1.326517E-06 -7.950387E-01  3.680877E-01
        48  1.447535E-06 -7.950378E-01  3.680881E-01
        49 -3.334438E-06  1.050145E+00 -3.157029E-01
        50  3.614524E-06 -4.142330E-01  1.039350E-01
        51 -4.785188E+00  1.179947E+01  6.001551E-01
        74 -4.681487E+00  1.186305E+01 -6.015925E-01
        75  4.243000E-07 -4.142896E-01 -1.039163E-01
        76 -1.119397E-06  1.050186E+00  3.156973E-01
        77  2.760145E-06 -7.950473E-01 -3.680852E-01
        89  4.682675E+00  1.186233E+01 -5.929561E-01
        90 -2.346970E-06 -4.142871E-01 -1.039163E-01
        91  1.447391E-06  1.050186E+00  3.156974E-01
        92 -2.362282E-06 -7.950488E-01 -3.680852E-01
        98  2.793033E-04  1.020898E+01 -6.509550E+00
        99 -1.303545E-02 -3.159682E+00  4.365316E-05
       100  9.629025E-04 -4.125221E+00  4.538203E-04
       101  1.275883E-02 -3.160109E+00  1.986415E-04
       102  2.968203E-05  1.017545E+01  6.509020E+00
       124  4.994844E+00  1.360025E+01 -3.741300E-01
       125  3.114001E-03  2.444804E+01  1.115427E+00
       126 -4.997841E+00  1.359795E+01 -3.751663E-01
       127  2.997328E-07 -8.284632E-01  2.078644E-01
       128  3.118279E-06 -1.782026E+00  6.375679E-01
       129 -1.348272E-07  2.100289E+00 -6.314035E-01
       130 -3.431200E-06 -1.782025E+00  6.375673E-01
       131  3.607825E-07 -1.590077E+00  7.361742E-01
       153 -3.563808E+00 -4.079106E+01 -9.316008E-01
       154  1.550497E-01  2.585779E+01 -9.286836E-04
       155  3.378285E+00 -4.083094E+01  9.328013E-01
       156 -7.968196E-06 -8.285152E-01 -1.686824E-05
       157 -5.195728E-06 -1.782031E+00  4.781694E-01
       158  3.952818E-06  2.100329E+00  7.888806E-06
       159 -8.881302E-08 -1.782073E+00 -4.781714E-01
       160 -8.316331E-07 -1.590088E+00 -2.291770E-06
       182  4.968050E+00  1.351550E+01  3.780985E-01
       183  2.222213E-03  2.438997E+01 -1.109197E+00
       184 -4.971340E+00  1.351436E+01  3.694238E-01
       185  8.798338E-07 -8.300441E-01 -2.078286E-01
       186  1.725511E-06 -1.783542E+00 -6.375498E-01
       187 -3.270373E-07  2.098917E+00  6.313955E-01
       188 -1.969006E-06 -1.783541E+00 -6.375496E-01
       189  2.731027E-07 -1.591559E+00 -7.361671E-01
       211 -3.377839E+00 -4.082378E+01  9.178597E-01
       212 -1.555724E-01  2.585842E+01  7.457088E-03
       213  3.564561E+00 -4.079820E+01 -9.353124E-01
       214  6.316177E-06 -8.285157E-01 -1.563596E-05
       215 -1.041491E-06 -1.782072E+00 -4.781715E-01
       216 -3.162996E-06  2.100329E+00  7.318833E-06
       217  4.262029E-06 -1.782032E+00  4.781695E-01
       218  4.155350E-07 -1.590088E+00 -3.160399E-06
       250  1.455613E-03 -8.309211E+01 -1.847712E+00
       251  1.241047E-01  3.788514E+01  1.092074E-02
       252 -4.066131E-03  5.468925E+01  4.788121E-03
       253 -1.224243E-01  3.788332E+01  3.132059E-03
       254 -7.504885E-04 -8.281827E+01  1.827896E+00
       255  2.242512E-06 -1.657036E+00 -4.133725E-05
       256  5.756543E-07 -3.564062E+00  9.563318E-01
       257  4.939373E-06 -3.564104E+00 -1.815818E-05
       258 -4.448982E-07  4.200662E+00  1.627669E-05
       259 -4.721115E-06 -3.564104E+00 -1.834571E-05
       260  1.153725E-06 -3.564154E+00 -9.563400E-01
       261 -3.393791E-07 -3.180180E+00 -6.375986E-06

 displacements (vx,vy,vz) for set NALL and time  0.2000000E-01

         5  0.000000E+00  0.000000E+00  0.000000E+00
         6  0.000000E+00  0.000000E+00  0.000000E+00
         7  0.000000E+00  0.000000E+00  0.000000E+00
         8  0.000000E+00  0.000000E+00  0.000000E+00
        21  0.000000E+00  0.000000E+00  0.000000E+00
        22  0.000000E+00  0.000000E+00  0.000000E+00
        23  0.000000E+00  0.000000E+00  0.000000E+00
        24  0.000000E+00  0.000000E+00  0.000000E+00
        25  0.000000E+00  0.000000E+00  0.000000E+00
        26  0.000000E+00  0.000000E+00  0.000000E+00
        27  0.000000E+00  0.000000E+00  0.000000E+00
        28  0.000000E+00  0.000000E+00  0.000000E+00
        29  0.000000E+00  0.000000E+00  0.000000E+00
        30  0.000000E+00  0.000000E+00  0.000000E+00
        31  0.000000E+00  0.000000E+00  0.000000E+00
        32  0.000000E+00  0.000000E+00  0.000000E+00
        44 -9.594551E-05  9.865545E-04 -1.439599E-04
        45 -2.291212E-05  7.670535E-04 -2.318683E-04
        46  2.619401E-05  5.625298E-04 -2.656246E-04
        47 -3.284503E-05  2.278916E-04 -1.747082E-04
        48  3.283876E-05  2.278913E-04 -1.747076E-04
        49 -2.619889E-05  5.625285E-04 -2.656269E-04
        50  2.289109E-05  7.670602E-04 -2.318443E-04
        51  9.599350E-05  9.864641E-04 -1.439336E-04
        74  9.186606E-05  9.906113E-04  1.437931E-04
        75  2.048492E-05  7.694846E-04  2.317357E-04
        76 -2.496131E-05  5.613224E-04  2.656990E-04
        77  3.352370E-05  2.271977E-04  1.747515E-04
        89 -9.182782E-05  9.906295E-04  1.437567E-04
        90 -2.049514E-05  7.694970E-04  2.317353E-04
        91  2.495389E-05  5.613167E-04  2.657087E-04
        92 -3.352727E-05  2.271989E-04  1.747561E-04
        98  0.000000E+00  0.000000E+00  0.000000E+00
        99  0.000000E+00  0.000000E+00  0.000000E+00
       100  0.000000E+00  0.000000E+00  0.000000E+00
       101  0.000000E+00  0.000000E+00  0.000000E+00
       102  0.000000E+00  0.000000E+00  0.000000E+00
       124  4.428902E-06  9.109024E-04 -1.357101E-04
       125 -1.169448E-08  1.086628E-03 -1.422351E-04
       126 -4.425264E-06  9.109417E-04 -1.357413E-04
       127 -4.527117E-10  8.002731E-04 -2.568592E-04
       128 -2.441996E-06  5.895594E-04 -2.849716E-04
       129 -1.050901E-08  5.472145E-04 -2.905690E-04
       130  2.431326E-06  5.895616E-04 -2.849667E-04
       131 -1.732998E-09  2.309809E-04 -1.697638E-04
       153  7.836223E-05  1.177779E-03 -6.387459E-05
       154 -8.387642E-07  1.044456E-03 -2.069482E-07
       155 -7.701698E-05  1.179771E-03  6.393958E-05
       156  1.372863E-07  8.656858E-04  2.194811E-07
       157 -1.573913E-05  4.879595E-04 -1.144284E-04
       158  1.867296E-08  4.976736E-04  1.392462E-07
       159  1.541472E-05  4.873993E-04  1.143955E-04
       160 -2.716006E-08  1.892603E-04  2.841530E-08
       182  2.344638E-06  9.093042E-04  1.357133E-04
       183  7.875039E-09  1.088153E-03  1.421838E-04
       184 -2.327366E-06  9.092963E-04  1.357197E-04
       185 -5.336082E-09  8.001730E-04  2.563032E-04
       186 -1.846360E-06  5.898882E-04  2.850298E-04
       187 -1.607307E-09  5.470545E-04  2.904115E-04
       188  1.843162E-06  5.898892E-04  2.850291E-04
       189 -1.601017E-09  2.310000E-04  1.697593E-04
       211  7.701191E-05  1.179787E-03  6.394166E-05
       212  8.091191E-07  1.044448E-03 -1.674952E-07
       213 -7.836053E-05  1.177724E-03 -6.389505E-05
       214 -1.544768E-07  8.656809E-04  2.276918E-07
       215 -1.542030E-05  4.873974E-04  1.144014E-04
       216 -2.608837E-08  4.976795E-04  1.415022E-07
       217  1.573505E-05  4.879632E-04 -1.144160E-04
       218  2.383997E-08  1.892607E-04  3.106062E-08
       250 -2.190623E-08  1.175445E-03 -6.335458E-05
       251 -3.275095E-07  7.429560E-04 -8.138045E-08