    1C
    1UUSER                                                              
    1UDATE              15.july.2018                                    
    1UTIME              20:05:03                                        
    1UHOST                                                              
    1UPGM               CalculiX                                        
    1UVERSION           Version 2.13                             
    1UCOMPILETIME       jue jun 14 00:40:39 CEST 2018                    
    1UDIR                                                               
    1UDBN                                                               
    1UMAT    1EL                                                        
    2C                            81                                     1
 -1         5 0.00000E+00 0.00000E+00 8.00000E+00
 -1         6 1.00000E+00 0.00000E+00 8.00000E+00
 -1         7 1.00000E+00 1.00000E+00 8.00000E+00
 -1         8 0.00000E+00 1.00000E+00 8.00000E+00
 -1        21 2.50000E-01 0.00000E+00 8.00000E+00
 -1        22 5.00000E-01 0.00000E+00 8.00000E+00
 -1        23 7.50000E-01 0.00000E+00 8.00000E+00
 -1        24 1.00000E+00 2.50000E-01 8.00000E+00
 -1        25 1.00000E+00 5.00000E-01 8.00000E+00
 -1        26 1.00000E+00 7.50000E-01 8.00000E+00
 -1        27 7.50000E-01 1.00000E+00 8.00000E+00
 -1        28 5.00000E-01 1.00000E+00 8.00000E+00
 -1        29 2.50000E-01 1.00000E+00 8.00000E+00
 -1        30 0.00000E+00 7.50000E-01 8.00000E+00
 -1        31 0.00000E+00 5.00000E-01 8.00000E+00
 -1        32 0.00000E+00 2.50000E-01 8.00000E+00
 -1        44 1.00000E+00 0.00000E+00 6.00000E+00
 -1        45 1.00000E+00 0.00000E+00 6.50000E+00
 -1        46 1.00000E+00 0.00000E+00 7.00000E+00
 -1        47 1.00000E+00 0.00000E+00 7.50000E+00
 -1        48 0.00000E+00 0.00000E+00 7.50000E+00
 -1        49 0.00000E+00 0.00000E+00 7.00000E+00
 -1        50 0.00000E+00 0.00000E+00 6.50000E+00
 -1        51 0.00000E+00 0.00000E+00 6.00000E+00
 -1        74 1.00000E+00 1.00000E+00 6.00000E+00
 -1        75 1.00000E+00 1.00000E+00 6.50000E+00
 -1        76 1.00000E+00 1.00000E+00 7.00000E+00
 -1        77 1.00000E+00 1.00000E+00 7.50000E+00
 -1        89 0.00000E+00 1.00000E+00 6.00000E+00
 -1        90 0.00000E+00 1.00000E+00 6.50000E+00
 -1        91 0.00000E+00 1.00000E+00 7.00000E+00
 -1        92 0.00000E+00 1.00000E+00 7.50000E+00
 -1        98 5.00000E-01 2.50000E-01 8.00000E+00
 -1        99 2.50000E-01 5.00000E-01 8.00000E+00
 -1       100 5.00000E-01 5.00000E-01 8.00000E+00
 -1       101 7.50000E-01 5.00000E-01 8.00000E+00
 -1       102 5.00000E-01 7.50000E-01 8.00000E+00
 -1       124 2.50000E-01 0.00000E+00 6.00000E+00
 -1       125 5.00000E-01 0.00000E+00 6.00000E+00
 -1       126 7.50000E-01 0.00000E+00 6.00000E+00
 -1       127 5.00000E-01 0.00000E+00 6.50000E+00
 -1       128 2.50000E-01 0.00000E+00 7.00000E+00
 -1       129 5.00000E-01 0.00000E+00 7.00000E+00
 -1       130 7.50000E-01 0.00000E+00 7.00000E+00
 -1       131 5.00000E-01 0.00000E+00 7.50000E+00
 -1       153 1.00000E+00 2.50000E-01 6.00000E+00
 -1       154 1.00000E+00 5.00000E-01 6.00000E+00
 -1       155 1.00000E+00 7.50000E-01 6.00000E+00
 -1       156 1.00000E+00 5.00000E-01 6.50000E+00
 -1       157 1.00000E+00 2.50000E-01 7.00000E+00
 -1       158 1.00000E+00 5.00000E-01 7.00000E+00
 -1       159 1.00000E+00 7.50000E-01 7.00000E+00
 -1       160 1.00000E+00 5.00000E-01 7.50000E+00
 -1       182 7.50000E-01 1.00000E+00 6.00000E+00
 -1       183 5.00000E-01 1.00000E+00 6.00000E+00
 -1       184 2.50000E-01 1.00000E+00 6.00000E+00
 -1       185 5.00000E-01 1.00000E+00 6.50000E+00
 -1       186 7.50000E-01 1.00000E+00 7.00000E+00
 -1       187 5.00000E-01 1.00000E+00 7.00000E+00
 -1       188 2.50000E-01 1.00000E+00 7.00000E+00
 -1       189 5.00000E-01 1.00000E+00 7.50000E+00
 -1       211 0.00000E+00 7.50000E-01 6.00000E+00
 -1       212 0.00000E+00 5.00000E-01 6.00000E+00
 -1       213 0.00000E+00 2.50000E-01 6.00000E+00
 -1       214 0.00000E+00 5.00000E-01 6.50000E+00
 -1       215 0.00000E+00 7.50000E-01 7.00000E+00
 -1       216 0.00000E+00 5.00000E-01 7.00000E+00
 -1       217 0.00000E+00 2.50000E-01 7.00000E+00
 -1       218 0.00000E+00 5.00000E-01 7.50000E+00
 -1       250 5.00000E-01 2.50000E-01 6.00000E+00
 -1       251 2.50000E-01 5.00000E-01 6.00000E+00
 -1       252 5.00000E-01 5.00000E-01 6.00000E+00
 -1       253 7.50000E-01 5.00000E-01 6.00000E+00
 -1       254 5.00000E-01 7.50000E-01 6.00000E+00
 -1       255 5.00000E-01 5.00000E-01 6.50000E+00
 -1       256 5.00000E-01 2.50000E-01 7.00000E+00
 -1       257 2.50000E-01 5.00000E-01 7.00000E+00
 -1       258 5.00000E-01 5.00000E-01 7.00000E+00
 -1       259 7.50000E-01 5.00000E-01 7.00000E+00
 -1       260 5.00000E-01 7.50000E-01 7.00000E+00
 -1       261 5.00000E-01 5.00000E-01 7.50000E+00
 -3
    3C                             8                                     1
 -1        25    4    0    1
 -2        51       125       252       212        49       129       258       216       124       250
 -2       251       213        50       127       255       214       128       256       257       217
 -1        26    4    0    1
 -2       125        44       154       252       129        46       158       258       126       153
 -2       253       250       127        45       156       255       130       157       259       256
 -1        27    4    0    1
 -2       212       252       183        89       216       258       187        91       251       254
 -2       184       211       214       255       185        90       257       260       188       215
 -1        28    4    0    1
 -2       252       154        74       183       258       158        76       187       253       155
 -2       182       254       255       156        75       185       259       159       186       260
 -1        29    4    0    1
 -2        49       129       258       216         5        22       100        31       128       256
 -2       257       217        48       131       261       218        21        98        99        32
 -1        30    4    0    1
 -2       129        46       158       258        22         6        25       100       130       157
 -2       259       256       131        47       160       261        23        24       101        98
 -1        31    4    0    1
 -2       216       258       187        91        31       100        28         8       257       260
 -2       188       215       218       261       189        92        99       102        29        30
 -1        32    4    0    1
 -2       258       158        76       187       100        25         7        28       259       159
 -2       186       260       261       160        77       189       101        26        27       102
 -3
    1PSTEP                         1           1           1          
  100CL  101 5.00000E-03          81                     1    1           1
 -4  DISP        4    1
 -5  D1          1    2    1    0
 -5  D2          1    2    2    0
 -5  D3          1    2    3    0
 -5  ALL         1    2    0    0    1ALL
 -1         5 0.00000E+00 0.00000E+00 0.00000E+00
 -1         6 0.00000E+00 0.00000E+00 0.00000E+00
 -1         7 0.00000E+00 0.00000E+00 0.00000E+00
 -1         8 0.00000E+00 0.00000E+00 0.00000E+00
 -1        21 0.00000E+00 0.00000E+00 0.00000E+00
 -1        22 0.00000E+00 0.00000E+00 0.00000E+00
 -1        23 0.00000E+00 0.00000E+00 0.00000E+00
 -1        24 0.00000E+00 0.00000E+00 0.00000E+00
 -1        25 0.00000E+00 0.00000E+00 0.00000E+00
 -1        26 0.00000E+00 0.00000E+00 0.00000E+00
 -1        27 0.00000E+00 0.00000E+00 0.00000E+00
 -1        28 0.00000E+00 0.00000E+00 0.00000E+00
 -1        29 0.00000E+00 0.00000E+00 0.00000E+00
 -1        30 0.00000E+00 0.00000E+00 0.00000E+00
 -1        31 0.00000E+00 0.00000E+00 0.00000E+00
 -1        32 0.00000E+00 0.00000E+00 0.00000E+00
 -1        44-5.97405E-05-3.46515E-03 4.48418E-04
 -1        45 5.68931E-05-2.56222E-03 7.85317E-04
 -1        46-4.78860E-05-1.79625E-03 9.49500E-04
 -1        47 1.30977E-04-6.75123E-04 5.43319E-04
 -1        48-1.30987E-04-6.75131E-04 5.43338E-04
 -1        49 4.78365E-05-1.79626E-03 9.49543E-04
 -1        50-5.69871E-05-2.56222E-03 7.85395E-04
 -1        51 5.95157E-05-3.46519E-03 4.48559E-04
 -1        74 3.17616E-04-4.41107E-03-4.94774E-04
 -1        75 1.90458E-04-2.97177E-03-7.84975E-04
 -1        76-1.10014E-04-1.59835E-03-9.50112E-04
 -1        77-2.07756E-04-5.26974E-04-5.58268E-04
 -1        89-3.17840E-04-4.41103E-03-4.94633E-04
 -1        90-1.90552E-04-2.97177E-03-7.84896E-04
 -1        91 1.09964E-04-1.59834E-03-9.50070E-04
 -1        92 2.07746E-04-5.26967E-04-5.58249E-04
 -1        98 0.00000E+00 0.00000E+00 0.00000E+00
 -1        99 0.00000E+00 0.00000E+00 0.00000E+00
 -1       100 0.00000E+00 0.00000E+00 0.00000E+00
 -1       101 0.00000E+00 0.00000E+00 0.00000E+00
 -1       102 0.00000E+00 0.00000E+00 0.00000E+00
 -1       124 1.50062E-04-2.96661E-03 4.29789E-04
 -1       125-8.59514E-08-3.59022E-03 4.48564E-04
 -1       126-1.50256E-04-2.96660E-03 4.29739E-04
 -1       127-5.52910E-08-2.56316E-03 9.03928E-04
 -1       128-9.29906E-06-1.95308E-03 9.48356E-04
 -1       129-1.53723E-08-1.81454E-03 9.41700E-04
 -1       130 9.25945E-06-1.95308E-03 9.48330E-04
 -1       131-3.09143E-09-7.36468E-04 5.56437E-04
 -1       153 6.96166E-05-3.63691E-03 1.91226E-04
 -1       154-1.20510E-04-2.50317E-03-2.11613E-05
 -1       155-6.49819E-05-3.88959E-03-2.38017E-04
 -1       156-1.20202E-04-2.78996E-03-6.46096E-05
 -1       157-2.05947E-05-1.50903E-03 3.92369E-04
 -1       158 8.83568E-05-1.56702E-03-2.94252E-05
 -1       159 4.66953E-05-1.47570E-03-4.11185E-04
 -1       160 3.97864E-05-6.56565E-04 4.88656E-06
 -1       182 1.14984E-04-2.56357E-03-4.71212E-04
 -1       183-8.58574E-08-4.35564E-03-4.76764E-04
 -1       184-1.15177E-04-2.56355E-03-4.71162E-04
 -1       185-5.53044E-08-2.83367E-03-8.74431E-04
 -1       186-4.41507E-05-2.16251E-03-9.82892E-04
 -1       187-1.53711E-08-1.83196E-03-9.63954E-04
 -1       188 4.41110E-05-2.16250E-03-9.82866E-04
 -1       189-3.09695E-09-7.20008E-04-5.64573E-04
 -1       211 6.47230E-05-3.88957E-03-2.37888E-04
 -1       212 1.20230E-04-2.50317E-03-2.10136E-05
 -1       213-6.98751E-05-3.63693E-03 1.91356E-04
 -1       214 1.20117E-04-2.78996E-03-6.45267E-05
 -1       215-4.67523E-05-1.47569E-03-4.11139E-04
 -1       216-8.84215E-05-1.56702E-03-2.93832E-05
 -1       217 2.05377E-05-1.50904E-03 3.92414E-04
 -1       218-3.97982E-05-6.56565E-04 4.89953E-06
 -1       250-8.41870E-08-4.08221E-03 1.74448E-04
 -1       251 3.02399E-05-2.57229E-03-1.05878E-05
 -1       252-8.16513E-08-3.12473E-03-1.57240E-05
 -1       253-3.04559E-05-2.57229E-03-1.06099E-05
 -1       254-8.42474E-08-4.41359E-03-2.54344E-04
 -1       255-6.26615E-08-2.59965E-03-3.19370E-05
 -1       256-1.40142E-08-1.60768E-03 3.95761E-04
 -1       257-4.11275E-05-1.74959E-03-1.19915E-05
 -1       258-1.17242E-08-1.79057E-03-1.45816E-05
 -1       259 4.10843E-05-1.74959E-03-1.20239E-05
 -1       260-1.39911E-08-1.62277E-03-4.18390E-04
 -1       261-5.94434E-09-7.17071E-04-2.00011E-06
 -3
    1PSTEP                         2           2           1          
  100CL  102 1.00000E-02          81                     1    2           1
 -4  DISP        4    1
 -5  D1          1    2    1    0
 -5  D2          1    2    2    0
 -5  D3          1    2    3    0
 -5  ALL         1    2    0    0    1ALL
 -1         5 0.00000E+00 0.00000E+00 0.00000E+00
 -1         6 0.00000E+00 0.00000E+00 0.00000E+00
 -1         7 0.00000E+00 0.00000E+00 0.00000E+00
 -1         8 0.00000E+00 0.00000E+00 0.00000E+00
 -1        21 0.00000E+00 0.00000E+00 0.00000E+00
 -1        22 0.00000E+00 0.00000E+00 0.00000E+00
 -1        23 0.00000E+00 0.00000E+00 0.00000E+00
 -1        24 0.00000E+00 0.00000E+00 0.00000E+00
 -1        25 0.00000E+00 0.00000E+00 0.00000E+00
 -1        26 0.00000E+00 0.00000E+00 0.00000E+00
 -1        27 0.00000E+00 0.00000E+00 0.00000E+00
 -1        28 0.00000E+00 0.00000E+00 0.00000E+00
 -1        29 0.00000E+00 0.00000E+00 0.00000E+00
 -1        30 0.00000E+00 0.00000E+00 0.00000E+00
 -1        31 0.00000E+00 0.00000E+00 0.00000E+00
 -1        32 0.00000E+00 0.00000E+00 0.00000E+00
 -1        44-1.58215E-04 1.60087E-03-2.34268E-04
 -1        45-3.85152E-05 1.24473E-03-3.77636E-04
 -1        46 4.38561E-05 9.17152E-04-4.32048E-04
 -1        47-5.28534E-05 3.71341E-04-2.84085E-04
 -1        48 5.28514E-05 3.71402E-04-2.84213E-04
 -1        49-4.39783E-05 9.17198E-04-4.32202E-04
 -1        50 3.88763E-05 1.24476E-03-3.77561E-04
 -1        51 1.58248E-04 1.60052E-03-2.34022E-04
 -1        74 1.49340E-04 1.61320E-03 2.34454E-04
 -1        75 3.28928E-05 1.25150E-03 3.77525E-04
 -1        76-4.00002E-05 9.13096E-04 4.32231E-04
 -1        77 5.46500E-05 3.69226E-04 2.84290E-04
 -1        89-1.48507E-04 1.61360E-03 2.34184E-04
 -1        90-3.24941E-05 1.25169E-03 3.77510E-04
 -1        91 4.00531E-05 9.13040E-04 4.32088E-04
 -1        92-5.46123E-05 3.69236E-04 2.84204E-04
 -1        98 0.00000E+00 0.00000E+00 0.00000E+00
 -1        99 0.00000E+00 0.00000E+00 0.00000E+00
 -1       100 0.00000E+00 0.00000E+00 0.00000E+00
 -1       101 0.00000E+00 0.00000E+00 0.00000E+00
 -1       102 0.00000E+00 0.00000E+00 0.00000E+00
 -1       124 4.27047E-06 1.48305E-03-2.20767E-04
 -1       125 3.22062E-07 1.76477E-03-2.31541E-04
 -1       126-3.99842E-06 1.48304E-03-2.20523E-04
 -1       127-8.22128E-09 1.30201E-03-4.17806E-04
 -1       128-3.62984E-06 9.58386E-04-4.63510E-04
 -1       129 9.56922E-08 8.89249E-04-4.72669E-04
 -1       130 3.68521E-06 9.58396E-04-4.63517E-04
 -1       131-2.24158E-08 3.75504E-04-2.76023E-04
 -1       153 1.27818E-04 1.91988E-03-1.03896E-04
 -1       154-7.97561E-07 1.69800E-03-1.32090E-07
 -1       155-1.24639E-04 1.91993E-03 1.04475E-04
 -1       156 8.89387E-07 1.40637E-03 8.61366E-07
 -1       157-2.55827E-05 7.93725E-04-1.85910E-04
 -1       158-4.86502E-07 8.10619E-04 4.24473E-07
 -1       159 2.48949E-05 7.93269E-04 1.85981E-04
 -1       160-1.99232E-07 3.08089E-04 4.65119E-08
 -1       182 5.50231E-06 1.47800E-03 2.20844E-04
 -1       183 4.38946E-07 1.77186E-03 2.31790E-04
 -1       184-4.73547E-06 1.47803E-03 2.20727E-04
 -1       185 1.23199E-07 1.30294E-03 4.16689E-04
 -1       186-3.05829E-06 9.60093E-04 4.63795E-04
 -1       187 1.03581E-07 8.89570E-04 4.72367E-04
 -1       188 3.20799E-06 9.60103E-04 4.63730E-04
 -1       189 6.67790E-09 3.75431E-04 2.75962E-04
 -1       211 1.25142E-04 1.92039E-03 1.04063E-04
 -1       212 1.20770E-06 1.69828E-03 5.12456E-08
 -1       213-1.27717E-04 1.91974E-03-1.03944E-04
 -1       214-7.90562E-07 1.40646E-03 7.49729E-07
 -1       215-2.47557E-05 7.93254E-04 1.85933E-04
 -1       216 6.60621E-07 8.10691E-04 3.10656E-07
 -1       217 2.56331E-05 7.93804E-04-1.85973E-04
 -1       218 2.23034E-07 3.08107E-04 2.03681E-08
 -1       250 1.46685E-07 1.90405E-03-1.03170E-04
 -1       251 1.68245E-06 1.20934E-03 1.08076E-07
 -1       252-8.29321E-08 1.54156E-03 8.98931E-08
 -1       253-1.52433E-06 1.20921E-03-1.48991E-07
 -1       254 2.10844E-07 1.90920E-03 1.03619E-04
 -1       255 1.23284E-07 1.37645E-03 1.78995E-07
 -1       256 4.19478E-08 7.83528E-04-2.07422E-04
 -1       257 7.59361E-08 9.14361E-04 1.39663E-09
 -1       258-4.36177E-09 8.11320E-04 7.57442E-08
 -1       259-8.91142E-09 9.14321E-04 9.77948E-08
 -1       260 4.34010E-08 7.83276E-04 2.07582E-04
 -1       261 2.91810E-08 3.48294E-04 8.00403E-09
 -3
    1PSTEP                         3           3           1          
  100CL  103 1.50000E-02          81                     1    3           1
 -4  DISP        4    1
 -5  D1          1    2    1    0
 -5  D2          1    2    2    0
 -5  D3          1    2    3    0
 -5  ALL         1    2    0    0    1ALL
 -1         5 0.00000E+00 0.00000E+00 0.00000E+00
 -1         6 0.00000E+00 0.00000E+00 0.00000E+00
 -1         7 0.00000E+00 0.00000E+00 0.00000E+00
 -1         8 0.00000E+00 0.00000E+00 0.00000E+00
 -1        21 0.00000E+00 0.00000E+00 0.00000E+00
 -1        22 0.00000E+00 0.00000E+00 0.00000E+00
 -1        23 0.00000E+00 0.00000E+00 0.00000E+00
 -1        24 0.00000E+00 0.00000E+00 0.00000E+00
 -1        25 0.00000E+00 0.00000E+00 0.00000E+00
 -1        26 0.00000E+00 0.00000E+00 0.00000E+00
 -1        27 0.00000E+00 0.00000E+00 0.00000E+00
 -1        28 0.00000E+00 0.00000E+00 0.00000E+00
 -1        29 0.00000E+00 0.00000E+00 0.00000E+00
 -1        30 0.00000E+00 0.00000E+00 0.00000E+00
 -1        31 0.00000E+00 0.00000E+00 0.00000E+00
 -1        32 0.00000E+00 0.00000E+00 0.00000E+00
 -1        44 1.31117E-04-1.26438E-03 1.85868E-04
 -1        45 3.24278E-05-9.84697E-04 2.99480E-04
 -1        46-3.60620E-05-7.28582E-04 3.42223E-04
 -1        47 4.12460E-05-2.95318E-04 2.25508E-04
 -1        48-4.12558E-05-2.95328E-04 2.25540E-04
 -1        49 3.60470E-05-7.28595E-04 3.42275E-04
 -1        50-3.25398E-05-9.84701E-04 2.99487E-04
 -1        51-1.31211E-04-1.26431E-03 1.85848E-04
 -1        74-1.21278E-04-1.27346E-03-1.85908E-04
 -1        75-2.68754E-05-9.90146E-04-2.99608E-04
 -1        76 3.24232E-05-7.25134E-04-3.42322E-04
 -1        77-4.29406E-05-2.93737E-04-2.25536E-04
 -1        89 1.21132E-04-1.27357E-03-1.85901E-04
 -1        90 2.67468E-05-9.90158E-04-2.99585E-04
 -1        91-3.24486E-05-7.25136E-04-3.42280E-04
 -1        92 4.29232E-05-2.93732E-04-2.25506E-04
 -1        98 0.00000E+00 0.00000E+00 0.00000E+00
 -1        99 0.00000E+00 0.00000E+00 0.00000E+00
 -1       100 0.00000E+00 0.00000E+00 0.00000E+00
 -1       101 0.00000E+00 0.00000E+00 0.00000E+00
 -1       102 0.00000E+00 0.00000E+00 0.00000E+00
 -1       124-4.60559E-06-1.17746E-03 1.75294E-04
 -1       125-8.62186E-08-1.39813E-03 1.83854E-04
 -1       126 4.48249E-06-1.17747E-03 1.75241E-04
 -1       127-2.57050E-08-1.03305E-03 3.31431E-04
 -1       128 3.13781E-06-7.59263E-04 3.67574E-04
 -1       129-2.99744E-08-7.04612E-04 3.75178E-04
 -1       130-3.17796E-06-7.59263E-04 3.67562E-04
 -1       131-1.62758E-09-2.97600E-04 2.18785E-04
 -1       153-1.04940E-04-1.52506E-03 8.26186E-05
 -1       154 2.22389E-06-1.35463E-03 5.24411E-08
 -1       155 1.01152E-04-1.52479E-03-8.27152E-05
 -1       156-1.21138E-07-1.11553E-03-5.92834E-07
 -1       157 2.11419E-05-6.29924E-04 1.47297E-04
 -1       158-2.59117E-08-6.43071E-04-2.42460E-07
 -1       159-2.03316E-05-6.29410E-04-1.47264E-04
 -1       160-4.82464E-08-2.43734E-04-6.75903E-08
 -1       182-4.59792E-06-1.17444E-03-1.75334E-04
 -1       183-1.17807E-07-1.40144E-03-1.84094E-04
 -1       184 4.41897E-06-1.17446E-03-1.75306E-04
 -1       185-3.73102E-08-1.03224E-03-3.30318E-04
 -1       186 2.56816E-06-7.60004E-04-3.67662E-04
 -1       187-3.71929E-08-7.05090E-04-3.74707E-04
 -1       188-2.62077E-06-7.60012E-04-3.67648E-04
 -1       189-4.32191E-09-2.97726E-04-2.18692E-04
 -1       211-1.01230E-04-1.52486E-03-8.26802E-05
 -1       212-2.26699E-06-1.35463E-03-1.06392E-08
 -1       213 1.04895E-04-1.52502E-03 8.26436E-05
 -1       214 2.25416E-08-1.11554E-03-5.64210E-07
 -1       215 2.02973E-05-6.29409E-04-1.47235E-04
 -1       216-8.89924E-09-6.43073E-04-1.98139E-07
 -1       217-2.11720E-05-6.29934E-04 1.47329E-04
 -1       218 2.97857E-08-2.43738E-04-4.18915E-08
 -1       250-7.29322E-08-1.50724E-03 8.20105E-05
 -1       251-1.84692E-06-9.57778E-04 5.77877E-08
 -1       252-5.01934E-08-1.22237E-03-6.45976E-08
 -1       253 1.76525E-06-9.57779E-04 5.36638E-08
 -1       254-9.02757E-08-1.51046E-03-8.22264E-05
 -1       255-3.35415E-08-1.09310E-03 1.19372E-09
 -1       256-2.80747E-08-6.20662E-04 1.64727E-04
 -1       257 1.52467E-07-7.25516E-04 1.54651E-08
 -1       258-2.73069E-08-6.41587E-04-2.18139E-10
 -1       259-1.94249E-07-7.25514E-04 1.39556E-09
 -1       260-3.14927E-08-6.20511E-04-1.64779E-04
 -1       261-7.47585E-09-2.75782E-04 1.03561E-08
 -3
    1PSTEP                         4           4           1          
  100CL  104 2.00000E-02          81                     1    4           1
 -4  DISP        4    1
 -5  D1          1    2    1    0
 -5  D2          1    2    2    0
 -5  D3          1    2    3    0
 -5  ALL         1    2    0    0    1ALL
 -1         5 0.00000E+00 0.00000E+00 0.00000E+00
 -1         6 0.00000E+00 0.00000E+00 0.00000E+00
 -1         7 0.00000E+00 0.00000E+00 0.00000E+00
 -1         8 0.00000E+00 0.00000E+00 0.00000E+00
 -1        21 0.00000E+00 0.00000E+00 0.00000E+00
 -1        22 0.00000E+00 0.00000E+00 0.00000E+00
 -1        23 0.00000E+00 0.00000E+00 0.00000E+00
 -1        24 0.00000E+00 0.00000E+00 0.00000E+00
 -1        25 0.00000E+00 0.00000E+00 0.00000E+00
 -1        26 0.00000E+00 0.00000E+00 0.00000E+00
 -1        27 0.00000E+00 0.00000E+00 0.00000E+00
 -1        28 0.00000E+00 0.00000E+00 0.00000E+00
 -1        29 0.00000E+00 0.00000E+00 0.00000E+00
 -1        30 0.00000E+00 0.00000E+00 0.00000E+00
 -1        31 0.00000E+00 0.00000E+00 0.00000E+00
 -1        32 0.00000E+00 0.00000E+00 0.00000E+00
 -1        44-9.86547E-05 9.84453E-04-1.44197E-04
 -1        45-2.39398E-05 7.66017E-04-2.32336E-04
 -1        46 2.71478E-05 5.64280E-04-2.65772E-04
 -1        47-3.24562E-05 2.28612E-04-1.74965E-04
 -1        48 3.24561E-05 2.28620E-04-1.74979E-04
 -1        49-2.71545E-05 5.64292E-04-2.65794E-04
 -1        50 2.39766E-05 7.66030E-04-2.32335E-04
 -1        51 9.87058E-05 9.84403E-04-1.44184E-04
 -1        74 9.44719E-05 9.89696E-04 1.44236E-04
 -1        75 2.12903E-05 7.68866E-04 2.32357E-04
 -1        76-2.53454E-05 5.62413E-04 2.65758E-04
 -1        77 3.32367E-05 2.27752E-04 1.74973E-04
 -1        89-9.44004E-05 9.89760E-04 1.44240E-04
 -1        90-2.12184E-05 7.68885E-04 2.32355E-04
 -1        91 2.53536E-05 5.62418E-04 2.65734E-04
 -1        92-3.32280E-05 2.27752E-04 1.74957E-04
 -1        98 0.00000E+00 0.00000E+00 0.00000E+00
 -1        99 0.00000E+00 0.00000E+00 0.00000E+00
 -1       100 0.00000E+00 0.00000E+00 0.00000E+00
 -1       101 0.00000E+00 0.00000E+00 0.00000E+00
 -1       102 0.00000E+00 0.00000E+00 0.00000E+00
 -1       124 3.07029E-06 9.12583E-04-1.35961E-04
 -1       125 3.89840E-08 1.08639E-03-1.42578E-04
 -1       126-3.01396E-06 9.12591E-04-1.35956E-04
 -1       127 7.67454E-09 8.01442E-04-2.57125E-04
 -1       128-2.28282E-06 5.89643E-04-2.85284E-04
 -1       129 7.13427E-09 5.47078E-04-2.91014E-04
 -1       130 2.28877E-06 5.89641E-04-2.85276E-04
 -1       131-2.18173E-09 2.31014E-04-1.69846E-04
 -1       153 7.98099E-05 1.18218E-03-6.41078E-05
 -1       154-6.50248E-07 1.04804E-03-1.78605E-08
 -1       155-7.83187E-05 1.18195E-03 6.41427E-05
 -1       156 2.97320E-07 8.65615E-04 2.85892E-07
 -1       157-1.60352E-05 4.88558E-04-1.14398E-04
 -1       158-1.75214E-07 4.98918E-04 1.29948E-07
 -1       159 1.57284E-05 4.88333E-04 1.14382E-04
 -1       160-4.27778E-08 1.89363E-04 2.79261E-08
 -1       182 3.85340E-06 9.10681E-04 1.35992E-04
 -1       183 6.27501E-08 1.08904E-03 1.42697E-04
 -1       184-3.76274E-06 9.10692E-04 1.35964E-04
 -1       185 1.67964E-08 8.01528E-04 2.56555E-04
 -1       186-2.09054E-06 5.90106E-04 2.85334E-04
 -1       187 1.99877E-08 5.47001E-04 2.90821E-04
 -1       188 2.11666E-06 5.90113E-04 2.85330E-04
 -1       189 2.06174E-09 2.30924E-04 1.69787E-04
 -1       211 7.83704E-05 1.18200E-03 6.41104E-05
 -1       212 7.08122E-07 1.04805E-03-2.12090E-09
 -1       213-7.97672E-05 1.18215E-03-6.41391E-05
 -1       214-2.71732E-07 8.65628E-04 2.68692E-07
 -1       215-1.57096E-05 4.88339E-04 1.14370E-04
 -1       216 1.98954E-07 4.98929E-04 1.11867E-07
 -1       217 1.60465E-05 4.88571E-04-1.14406E-04
 -1       218 4.77740E-08 1.89367E-04 2.05454E-08
 -1       250 2.36677E-08 1.17155E-03-6.36056E-05
 -1       251 9.97918E-07 7.43861E-04-2.63233E-08
 -1       252 3.91849E-09 9.48480E-04-1.65119E-08
 -1       253-9.61356E-07 7.43853E-04-4.66798E-08
 -1       254 3.70839E-08 1.17394E-03 6.37415E-05
 -1       255 1.81308E-08 8.47451E-04 1.29770E-08
 -1       256 5.53741E-09 4.81914E-04-1.27768E-04
 -1       257-5.30852E-08 5.62848E-04-1.50811E-08
 -1       258 4.24549E-09 4.98746E-04 2.03650E-09
 -1       259 6.75027E-08 5.62843E-04-3.00944E-09
 -1       260 1.15535E-08 4.81620E-04 1.27781E-04
 -1       261 3.69612E-09 2.14236E-04 1.01753E-08
 -3
    1PSTEP                         5           5           1          
  100CL  105 2.50000E-02          81                     1    5           1
 -4  DISP        4    1
 -5  D1          1    2    1    0
 -5  D2          1    2    2    0
 -5  D3          1    2    3    0
 -5  ALL         1    2    0    0    1ALL
 -1         5 0.00000E+00 0.00000E+00 0.00000E+00
 -1         6 0.00000E+00 0.00000E+00 0.00000E+00
 -1         7 0.00000E+00 0.00000E+00 0.00000E+00
 -1         8 0.00000E+00 0.00000E+00 0.00000E+00
 -1        21 0.00000E+00 0.00000E+00 0.00000E+00
 -1        22 0.00000E+00 0.00000E+00 0.00000E+00
 -1        23 0.00000E+00 0.00000E+00 0.00000E+00
 -1        24 0.00000E+00 0.00000E+00 0.00000E+00
 -1        25 0.00000E+00 0.00000E+00 0.00000E+00
 -1        26 0.00000E+00 0.00000E+00 0.00000E+00
 -1        27 0.00000E+00 0.00000E+00 0.00000E+00
 -1        28 0.00000E+00 0.00000E+00 0.00000E+00
 -1        29 0.00000E+00 0.00000E+00 0.00000E+00
 -1        30 0.00000E+00 0.00000E+00 0.00000E+00
 -1        31 0.00000E+00 0.00000E+00 0.00000E+00
 -1        32 0.00000E+00 0.00000E+00 0.00000E+00
 -1        44 7.15339E-05-7.45781E-04 1.08649E-04
 -1        45 1.66968E-05-5.79373E-04 1.75135E-04
 -1        46-1.95494E-05-4.24577E-04 2.00490E-04
 -1        47 2.48951E-05-1.71942E-04 1.31896E-04
 -1        48-2.48994E-05-1.71949E-04 1.31914E-04
 -1        49 1.95530E-05-4.24583E-04 2.00509E-04
 -1        50-1.67794E-05-5.79353E-04 1.75143E-04
 -1        51-7.16386E-05-7.45689E-04 1.08669E-04
 -1        74-7.01587E-05-7.47228E-04-1.08674E-04
 -1        75-1.59332E-05-5.80213E-04-1.75143E-04
 -1        76 1.91321E-05-4.24151E-04-2.00494E-04
 -1        77-2.51401E-05-1.71702E-04-1.31909E-04
 -1        89 7.00683E-05-7.47300E-04-1.08651E-04
 -1        90 1.58566E-05-5.80236E-04-1.75134E-04
 -1        91-1.91280E-05-4.24139E-04-2.00482E-04
 -1        92 2.51369E-05-1.71693E-04-1.31894E-04
 -1        98 0.00000E+00 0.00000E+00 0.00000E+00
 -1        99 0.00000E+00 0.00000E+00 0.00000E+00
 -1       100 0.00000E+00 0.00000E+00 0.00000E+00
 -1       101 0.00000E+00 0.00000E+00 0.00000E+00
 -1       102 0.00000E+00 0.00000E+00 0.00000E+00
 -1       124-2.83374E-06-6.87148E-04 1.02410E-04
 -1       125-8.90713E-08-8.20540E-04 1.07446E-04
 -1       126 2.71097E-06-6.87151E-04 1.02375E-04
 -1       127-1.39043E-08-6.04383E-04 1.93639E-04
 -1       128 1.69960E-06-4.45110E-04 2.15129E-04
 -1       129-2.28727E-08-4.12768E-04 2.19283E-04
 -1       130-1.72521E-06-4.45116E-04 2.15126E-04
 -1       131 1.12650E-09-1.74289E-04 1.28126E-04
 -1       153-5.88491E-05-8.90267E-04 4.82571E-05
 -1       154 2.31613E-07-7.88282E-04 1.58879E-08
 -1       155 5.83133E-05-8.91021E-04-4.82529E-05
 -1       156-5.82771E-08-6.52896E-04-1.06352E-07
 -1       157 1.17775E-05-3.68385E-04 8.63042E-05
 -1       158-3.01403E-08-3.76179E-04-4.50210E-08
 -1       159-1.16851E-05-3.68177E-04-8.63103E-05
 -1       160 6.26857E-09-1.43005E-04-4.47797E-09
 -1       182-2.02474E-06-6.86603E-04-1.02396E-04
 -1       183-7.97168E-08-8.21148E-04-1.07454E-04
 -1       184 1.91781E-06-6.86597E-04-1.02371E-04
 -1       185-1.38010E-08-6.04353E-04-1.93445E-04
 -1       186 1.48681E-06-4.45232E-04-2.15140E-04
 -1       187-2.13011E-08-4.12704E-04-2.19221E-04
 -1       188-1.51052E-06-4.45235E-04-2.15138E-04
 -1       189 1.53796E-09-1.74292E-04-1.28121E-04
 -1       211-5.83555E-05-8.91085E-04-4.82476E-05
 -1       212-2.84781E-07-7.88283E-04 3.48087E-09
 -1       213 5.87976E-05-8.90194E-04 4.82914E-05
 -1       214 2.95603E-08-6.52889E-04-7.94965E-08
 -1       215 1.16652E-05-3.68166E-04-8.62924E-05
 -1       216-1.98019E-09-3.76181E-04-2.19227E-08
 -1       217-1.17975E-05-3.68394E-04 8.63197E-05
 -1       218-1.28160E-08-1.43004E-04 3.62213E-10
 -1       250-4.00732E-08-8.85661E-04 4.79062E-05
 -1       251 1.54630E-07-5.61214E-04 1.84789E-08
 -1       252 2.24288E-08-7.15723E-04 2.06415E-08
 -1       253-1.70635E-07-5.61213E-04 2.87422E-08
 -1       254-3.54127E-08-8.85367E-04-4.79626E-05
 -1       255-2.13189E-08-6.38765E-04 5.23232E-09
 -1       256-1.11739E-08-3.63494E-04 9.62753E-05
 -1       257-6.28268E-08-4.24444E-04 8.65151E-09
 -1       258-2.35889E-09-3.76662E-04-2.76556E-09
 -1       259 4.83909E-08-4.24443E-04-4.14086E-09
 -1       260-1.04672E-08-3.63591E-04-9.62720E-05
 -1       261-6.70650E-09-1.61705E-04-2.49062E-09
 -3
    1PSTEP                         6           6           1          
  100CL  106 3.00000E-02          81                     1    6           1
 -4  DISP        4    1
 -5  D1          1    2    1    0
 -5  D2          1    2    2    0
 -5  D3          1    2    3    0
 -5  ALL         1    2    0    0    1ALL
 -1         5 0.00000E+00 0.00000E+00 0.00000E+00
 -1         6 0.00000E+00 0.00000E+00 0.00000E+00
 -1         7 0.00000E+00 0.00000E+00 0.00000E+00
 -1         8 0.00000E+00 0.00000E+00 0.00000E+00
 -1        21 0.00000E+00 0.00000E+00 0.00000E+00
 -1        22 0.00000E+00 0.00000E+00 0.00000E+00
 -1        23 0.00000E+00 0.00000E+00 0.00000E+00
 -1        24 0.00000E+00 0.00000E+00 0.00000E+00
 -1        25 0.00000E+00 0.00000E+00 0.00000E+00
 -1        26 0.00000E+00 0.00000E+00 0.00000E+00
 -1        27 0.00000E+00 0.00000E+00 0.00000E+00
 -1        28 0.00000E+00 0.00000E+00 0.00000E+00
 -1        29 0.00000E+00 0.00000E+00 0.00000E+00
 -1        30 0.00000E+00 0.00000E+00 0.00000E+00
 -1        31 0.00000E+00 0.00000E+00 0.00000E+00
 -1        32 0.00000E+00 0.00000E+00 0.00000E+00
 -1        44-5.12928E-05 5.41511E-04-7.87448E-05
 -1        45-1.17370E-05 4.20687E-04-1.26932E-04
 -1        46 1.39810E-05 3.07516E-04-1.45362E-04
 -1        47-1.81777E-05 1.24519E-04-9.56401E-05