    1C
    1UUSER                                                              
    1UDATE              15.july.2018                                    
    1UTIME              19:37:29                                        
    1UHOST                                                              
    1UPGM               CalculiX                                        
    1UVERSION           Version 2.13                             
    1UCOMPILETIME       jue jun 14 00:40:39 CEST 2018                    
    1UDIR                                                               
    1UDBN                                                               
    1UMAT    1EL                                                        
    2C                            81                                     1
 -1         5 0.00000E+00 0.00000E+00 8.00000E+00
 -1         6 1.00000E+00 0.00000E+00 8.00000E+00
 -1         7 1.00000E+00 1.00000E+00 8.00000E+00
 -1         8 0.00000E+00 1.00000E+00 8.00000E+00
 -1        21 2.50000E-01 0.00000E+00 8.00000E+00
 -1        22 5.00000E-01 0.00000E+00 8.00000E+00
 -1        23 7.50000E-01 0.00000E+00 8.00000E+00
 -1        24 1.00000E+00 2.50000E-01 8.00000E+00
 -1        25 1.00000E+00 5.00000E-01 8.00000E+00
 -1        26 1.00000E+00 7.50000E-01 8.00000E+00
 -1        27 7.50000E-01 1.00000E+00 8.00000E+00
 -1        28 5.00000E-01 1.00000E+00 8.00000E+00
 -1        29 2.50000E-01 1.00000E+00 8.00000E+00
 -1        30 0.00000E+00 7.50000E-01 8.00000E+00
 -1        31 0.00000E+00 5.00000E-01 8.00000E+00
 -1        32 0.00000E+00 2.50000E-01 8.00000E+00
 -1        44 1.00000E+00 0.00000E+00 6.00000E+00
 -1        45 1.00000E+00 0.00000E+00 6.50000E+00
 -1        46 1.00000E+00 0.00000E+00 7.00000E+00
 -1        47 1.00000E+00 0.00000E+00 7.50000E+00
 -1        48 0.00000E+00 0.00000E+00 7.50000E+00
 -1        49 0.00000E+00 0.00000E+00 7.00000E+00
 -1        50 0.00000E+00 0.00000E+00 6.50000E+00
 -1        51 0.00000E+00 0.00000E+00 6.00000E+00
 -1        74 1.00000E+00 1.00000E+00 6.00000E+00
 -1        75 1.00000E+00 1.00000E+00 6.50000E+00
 -1        76 1.00000E+00 1.00000E+00 7.00000E+00
 -1        77 1.00000E+00 1.00000E+00 7.50000E+00
 -1        89 0.00000E+00 1.00000E+00 6.00000E+00
 -1        90 0.00000E+00 1.00000E+00 6.50000E+00
 -1        91 0.00000E+00 1.00000E+00 7.00000E+00
 -1        92 0.00000E+00 1.00000E+00 7.50000E+00
 -1        98 5.00000E-01 2.50000E-01 8.00000E+00
 -1        99 2.50000E-01 5.00000E-01 8.00000E+00
 -1       100 5.00000E-01 5.00000E-01 8.00000E+00
 -1       101 7.50000E-01 5.00000E-01 8.00000E+00
 -1       102 5.00000E-01 7.50000E-01 8.00000E+00
 -1       124 2.50000E-01 0.00000E+00 6.00000E+00
 -1       125 5.00000E-01 0.00000E+00 6.00000E+00
 -1       126 7.50000E-01 0.00000E+00 6.00000E+00
 -1       127 5.00000E-01 0.00000E+00 6.50000E+00
 -1       128 2.50000E-01 0.00000E+00 7.00000E+00
 -1       129 5.00000E-01 0.00000E+00 7.00000E+00
 -1       130 7.50000E-01 0.00000E+00 7.00000E+00
 -1       131 5.00000E-01 0.00000E+00 7.50000E+00
 -1       153 1.00000E+00 2.50000E-01 6.00000E+00
 -1       154 1.00000E+00 5.00000E-01 6.00000E+00
 -1       155 1.00000E+00 7.50000E-01 6.00000E+00
 -1       156 1.00000E+00 5.00000E-01 6.50000E+00
 -1       157 1.00000E+00 2.50000E-01 7.00000E+00
 -1       158 1.00000E+00 5.00000E-01 7.00000E+00
 -1       159 1.00000E+00 7.50000E-01 7.00000E+00
 -1       160 1.00000E+00 5.00000E-01 7.50000E+00
 -1       182 7.50000E-01 1.00000E+00 6.00000E+00
 -1       183 5.00000E-01 1.00000E+00 6.00000E+00
 -1       184 2.50000E-01 1.00000E+00 6.00000E+00
 -1       185 5.00000E-01 1.00000E+00 6.50000E+00
 -1       186 7.50000E-01 1.00000E+00 7.00000E+00
 -1       187 5.00000E-01 1.00000E+00 7.00000E+00
 -1       188 2.50000E-01 1.00000E+00 7.00000E+00
 -1       189 5.00000E-01 1.00000E+00 7.50000E+00
 -1       211 0.00000E+00 7.50000E-01 6.00000E+00
 -1       212 0.00000E+00 5.00000E-01 6.00000E+00
 -1       213 0.00000E+00 2.50000E-01 6.00000E+00
 -1       214 0.00000E+00 5.00000E-01 6.50000E+00
 -1       215 0.00000E+00 7.50000E-01 7.00000E+00
 -1       216 0.00000E+00 5.00000E-01 7.00000E+00
 -1       217 0.00000E+00 2.50000E-01 7.00000E+00
 -1       218 0.00000E+00 5.00000E-01 7.50000E+00
 -1       250 5.00000E-01 2.50000E-01 6.00000E+00
 -1       251 2.50000E-01 5.00000E-01 6.00000E+00
 -1       252 5.00000E-01 5.00000E-01 6.00000E+00
 -1       253 7.50000E-01 5.00000E-01 6.00000E+00
 -1       254 5.00000E-01 7.50000E-01 6.00000E+00
 -1       255 5.00000E-01 5.00000E-01 6.50000E+00
 -1       256 5.00000E-01 2.50000E-01 7.00000E+00
 -1       257 2.50000E-01 5.00000E-01 7.00000E+00
 -1       258 5.00000E-01 5.00000E-01 7.00000E+00
 -1       259 7.50000E-01 5.00000E-01 7.00000E+00
 -1       260 5.00000E-01 7.50000E-01 7.00000E+00
 -1       261 5.00000E-01 5.00000E-01 7.50000E+00
 -3
    3C                             8                                     1
 -1        25    4    0    1
 -2        51       125       252       212        49       129       258       216       124       250
 -2       251       213        50       127       255       214       128       256       257       217
 -1        26    4    0    1
 -2       125        44       154       252       129        46       158       258       126       153
 -2       253       250       127        45       156       255       130       157       259       256
 -1        27    4    0    1
 -2       212       252       183        89       216       258       187        91       251       254
 -2       184       211       214       255       185        90       257       260       188       215
 -1        28    4    0    1
 -2       252       154        74       183       258       158        76       187       253       155
 -2       182       254       255       156        75       185       259       159       186       260
 -1        29    4    0    1
 -2        49       129       258       216         5        22       100        31       128       256
 -2       257       217        48       131       261       218        21        98        99        32
 -1        30    4    0    1
 -2       129        46       158       258        22         6        25       100       130       157
 -2       259       256       131        47       160       261        23        24       101        98
 -1        31    4    0    1
 -2       216       258       187        91        31       100        28         8       257       260
 -2       188       215       218       261       189        92        99       102        29        30
 -1        32    4    0    1
 -2       258       158        76       187       100        25         7        28       259       159
 -2       186       260       261       160        77       189       101        26        27       102
 -3
    1PSTEP                         1           1           1          
  100CL  101 5.00000E-03          81                     1    1           1
 -4  DISP        4    1
 -5  D1          1    2    1    0
 -5  D2          1    2    2    0
 -5  D3          1    2    3    0
 -5  ALL         1    2    0    0    1ALL
 -1         5 0.00000E+00 0.00000E+00 0.00000E+00
 -1         6 0.00000E+00 0.00000E+00 0.00000E+00
 -1         7 0.00000E+00 0.00000E+00 0.00000E+00
 -1         8 0.00000E+00 0.00000E+00 0.00000E+00
 -1        21 0.00000E+00 0.00000E+00 0.00000E+00
 -1        22 0.00000E+00 0.00000E+00 0.00000E+00
 -1        23 0.00000E+00 0.00000E+00 0.00000E+00
 -1        24 0.00000E+00 0.00000E+00 0.00000E+00
 -1        25 0.00000E+00 0.00000E+00 0.00000E+00
 -1        26 0.00000E+00 0.00000E+00 0.00000E+00
 -1        27 0.00000E+00 0.00000E+00 0.00000E+00
 -1        28 0.00000E+00 0.00000E+00 0.00000E+00
 -1        29 0.00000E+00 0.00000E+00 0.00000E+00
 -1        30 0.00000E+00 0.00000E+00 0.00000E+00
 -1        31 0.00000E+00 0.00000E+00 0.00000E+00
 -1        32 0.00000E+00 0.00000E+00 0.00000E+00
 -1        44-5.98871E-05-3.46511E-03 4.48618E-04
 -1        45 5.68434E-05-2.56210E-03 7.85385E-04
 -1        46-4.78442E-05-1.79597E-03 9.49299E-04
 -1        47 1.31001E-04-6.75056E-04 5.43222E-04
 -1        48-1.31011E-04-6.75062E-04 5.43240E-04
 -1        49 4.77991E-05-1.79598E-03 9.49338E-04
 -1        50-5.69313E-05-2.56211E-03 7.85452E-04
 -1        51 5.96953E-05-3.46513E-03 4.48728E-04
 -1        74 3.18094E-04-4.41111E-03-4.94776E-04
 -1        75 1.90690E-04-2.97177E-03-7.84694E-04
 -1        76-1.10155E-04-1.59805E-03-9.50030E-04
 -1        77-2.07807E-04-5.26868E-04-5.58239E-04
 -1        89-3.18285E-04-4.41109E-03-4.94666E-04
 -1        90-1.90778E-04-2.97176E-03-7.84626E-04
 -1        91 1.10110E-04-1.59804E-03-9.49991E-04
 -1        92 2.07797E-04-5.26861E-04-5.58221E-04
 -1        98 0.00000E+00 0.00000E+00 0.00000E+00
 -1        99 0.00000E+00 0.00000E+00 0.00000E+00
 -1       100 0.00000E+00 0.00000E+00 0.00000E+00
 -1       101 0.00000E+00 0.00000E+00 0.00000E+00
 -1       102 0.00000E+00 0.00000E+00 0.00000E+00
 -1       124 1.49887E-04-2.96652E-03 4.29790E-04
 -1       125-7.77140E-08-3.58991E-03 4.48889E-04
 -1       126-1.50057E-04-2.96651E-03 4.29749E-04
 -1       127-4.92033E-08-2.56285E-03 9.03885E-04
 -1       128-9.25796E-06-1.95287E-03 9.48228E-04
 -1       129-1.59534E-08-1.81443E-03 9.41536E-04
 -1       130 9.21995E-06-1.95286E-03 9.48206E-04
 -1       131-3.37352E-09-7.36459E-04 5.56392E-04
 -1       153 6.98349E-05-3.63613E-03 1.91195E-04
 -1       154-1.20365E-04-2.50271E-03-2.09017E-05
 -1       155-6.51457E-05-3.88883E-03-2.38089E-04
 -1       156-1.20220E-04-2.78970E-03-6.45362E-05
 -1       157-2.06231E-05-1.50895E-03 3.92347E-04
 -1       158 8.83675E-05-1.56687E-03-2.94466E-05
 -1       159 4.67381E-05-1.47561E-03-4.11125E-04
 -1       160 3.97963E-05-6.56541E-04 4.87482E-06
 -1       182 1.15111E-04-2.56329E-03-4.71307E-04
 -1       183-7.77448E-08-4.35524E-03-4.76539E-04
 -1       184-1.15281E-04-2.56328E-03-4.71266E-04
 -1       185-4.91578E-08-2.83336E-03-8.74209E-04
 -1       186-4.41909E-05-2.16230E-03-9.82716E-04
 -1       187-1.59963E-08-1.83182E-03-9.63778E-04
 -1       188 4.41528E-05-2.16230E-03-9.82693E-04
 -1       189-3.37085E-09-7.19991E-04-5.64532E-04
 -1       211 6.49351E-05-3.88882E-03-2.37986E-04
 -1       212 1.20146E-04-2.50271E-03-2.07899E-05
 -1       213-7.00453E-05-3.63615E-03 1.91298E-04
 -1       214 1.20135E-04-2.78970E-03-6.44674E-05
 -1       215-4.67873E-05-1.47560E-03-4.11084E-04
 -1       216-8.84209E-05-1.56687E-03-2.94074E-05
 -1       217 2.05738E-05-1.50895E-03 3.92389E-04
 -1       218-3.98089E-05-6.56541E-04 4.88985E-06
 -1       250-7.86301E-08-4.08205E-03 1.74711E-04
 -1       251 3.02060E-05-2.57234E-03-1.04098E-05
 -1       252-7.86921E-08-3.12461E-03-1.55826E-05
 -1       253-3.03910E-05-2.57234E-03-1.04375E-05
 -1       254-7.87453E-08-4.41310E-03-2.54075E-04
 -1       255-5.31390E-08-2.59930E-03-3.19683E-05
 -1       256-1.60537E-08-1.60759E-03 3.95689E-04
 -1       257-4.11286E-05-1.74942E-03-1.19873E-05
 -1       258-1.53321E-08-1.79053E-03-1.45599E-05
 -1       259 4.10873E-05-1.74942E-03-1.20130E-05
 -1       260-1.60553E-08-1.62274E-03-4.18327E-04
 -1       261-5.35651E-09-7.17047E-04-1.97899E-06
 -3
    1PSTEP                         2           2           1          
  100CL  102 1.00000E-02          81                     1    2           1
 -4  DISP        4    1
 -5  D1          1    2    1    0
 -5  D2          1    2    2    0
 -5  D3          1    2    3    0
 -5  ALL         1    2    0    0    1ALL
 -1         5 0.00000E+00 0.00000E+00 0.00000E+00
 -1         6 0.00000E+00 0.00000E+00 0.00000E+00
 -1         7 0.00000E+00 0.00000E+00 0.00000E+00
 -1         8 0.00000E+00 0.00000E+00 0.00000E+00
 -1        21 0.00000E+00 0.00000E+00 0.00000E+00
 -1        22 0.00000E+00 0.00000E+00 0.00000E+00
 -1        23 0.00000E+00 0.00000E+00 0.00000E+00
 -1        24 0.00000E+00 0.00000E+00 0.00000E+00
 -1        25 0.00000E+00 0.00000E+00 0.00000E+00
 -1        26 0.00000E+00 0.00000E+00 0.00000E+00
 -1        27 0.00000E+00 0.00000E+00 0.00000E+00
 -1        28 0.00000E+00 0.00000E+00 0.00000E+00
 -1        29 0.00000E+00 0.00000E+00 0.00000E+00
 -1        30 0.00000E+00 0.00000E+00 0.00000E+00
 -1        31 0.00000E+00 0.00000E+00 0.00000E+00
 -1        32 0.00000E+00 0.00000E+00 0.00000E+00
 -1        44-1.69205E-04 1.58974E-03-2.34101E-04
 -1        45-4.46862E-05 1.23890E-03-3.77509E-04
 -1        46 4.67450E-05 9.20070E-04-4.32178E-04
 -1        47-5.11811E-05 3.73120E-04-2.84183E-04
 -1        48 5.11997E-05 3.73135E-04-2.84257E-04
 -1        49-4.67656E-05 9.20064E-04-4.32280E-04
 -1        50 4.49466E-05 1.23889E-03-3.77484E-04
 -1        51 1.69518E-04 1.58932E-03-2.33988E-04
 -1        74 1.38029E-04 1.62626E-03 2.34502E-04
 -1        75 2.61459E-05 1.25896E-03 3.77471E-04
 -1        76-3.68738E-05 9.09651E-04 4.32147E-04
 -1        77 5.65877E-05 3.67206E-04 2.84318E-04
 -1        89-1.37644E-04 1.62634E-03 2.34308E-04
 -1        90-2.59409E-05 1.25902E-03 3.77435E-04
 -1        91 3.68819E-05 9.09590E-04 4.32057E-04
 -1        92-5.65848E-05 3.67189E-04 2.84266E-04
 -1        98 0.00000E+00 0.00000E+00 0.00000E+00
 -1        99 0.00000E+00 0.00000E+00 0.00000E+00
 -1       100 0.00000E+00 0.00000E+00 0.00000E+00
 -1       101 0.00000E+00 0.00000E+00 0.00000E+00
 -1       102 0.00000E+00 0.00000E+00 0.00000E+00
 -1       124 1.18657E-05 1.48723E-03-2.20599E-04
 -1       125 2.71698E-07 1.76109E-03-2.31300E-04
 -1       126-1.14812E-05 1.48735E-03-2.20585E-04
 -1       127 6.05905E-08 1.30262E-03-4.19401E-04
 -1       128-5.41231E-06 9.57580E-04-4.63605E-04
 -1       129 6.03663E-08 8.89962E-04-4.73350E-04
 -1       130 5.47402E-06 9.57601E-04-4.63575E-04
 -1       131-3.69809E-09 3.75470E-04-2.76105E-04
 -1       153 1.32205E-04 1.91288E-03-1.03890E-04
 -1       154-4.40732E-06 1.70027E-03 3.44798E-08
 -1       155-1.21644E-04 1.92883E-03 1.04214E-04
 -1       156 1.57944E-06 1.40767E-03 2.33931E-06
 -1       157-2.65940E-05 7.95445E-04-1.86025E-04
 -1       158-1.96922E-07 8.10111E-04 9.09591E-07
 -1       159 2.42692E-05 7.91113E-04 1.85959E-04
 -1       160-3.82667E-07 3.07819E-04 5.82728E-08
 -1       182-2.25722E-06 1.47395E-03 2.20983E-04
 -1       183 2.06426E-07 1.77822E-03 2.32001E-04
 -1       184 2.60361E-06 1.47389E-03 2.20818E-04
 -1       185 4.56184E-08 1.30325E-03 4.15627E-04
 -1       186-1.13969E-06 9.61186E-04 4.63988E-04
 -1       187 4.73417E-08 8.88906E-04 4.72040E-04
 -1       188 1.20318E-06 9.61177E-04 4.63959E-04
 -1       189-4.77834E-09 3.75418E-04 2.75938E-04
 -1       211 1.21941E-04 1.92894E-03 1.04028E-04
 -1       212 4.75788E-06 1.70027E-03 6.86423E-08
 -1       213-1.31935E-04 1.91262E-03-1.04091E-04
 -1       214-1.50980E-06 1.40763E-03 2.24573E-06
 -1       215-2.41903E-05 7.91078E-04 1.85902E-04
 -1       216 3.18246E-07 8.10127E-04 8.33511E-07
 -1       217 2.66596E-05 7.95463E-04-1.86050E-04
 -1       218 3.96271E-07 3.07812E-04 4.08224E-08
 -1       250 1.30808E-07 1.90976E-03-1.02824E-04
 -1       251-2.40021E-06 1.20878E-03-1.03151E-07
 -1       252-3.34270E-08 1.54401E-03 2.09552E-07
 -1       253 2.55903E-06 1.20879E-03-2.44723E-07
 -1       254 1.06661E-07 1.90807E-03 1.03999E-04
 -1       255 8.99452E-08 1.37705E-03 1.93303E-07
 -1       256 2.70822E-08 7.82460E-04-2.07461E-04
 -1       257 1.18205E-06 9.14732E-04-9.34785E-09
 -1       258-4.38527E-09 8.11250E-04 8.04921E-08
 -1       259-1.13485E-06 9.14722E-04 5.81216E-08
 -1       260 1.77396E-08 7.84089E-04 2.07683E-04
 -1       261 1.75987E-08 3.48180E-04 2.13266E-08
 -3
    1PSTEP                         3           3           1          
  100CL  103 1.50000E-02          81                     1    3           1
 -4  DISP        4    1
 -5  D1          1    2    1    0
 -5  D2          1    2    2    0
 -5  D3          1    2    3    0
 -5  ALL         1    2    0    0    1ALL
 -1         5 0.00000E+00 0.00000E+00 0.00000E+00
 -1         6 0.00000E+00 0.00000E+00 0.00000E+00
 -1         7 0.00000E+00 0.00000E+00 0.00000E+00
 -1         8 0.00000E+00 0.00000E+00 0.00000E+00
 -1        21 0.00000E+00 0.00000E+00 0.00000E+00
 -1        22 0.00000E+00 0.00000E+00 0.00000E+00
 -1        23 0.00000E+00 0.00000E+00 0.00000E+00
 -1        24 0.00000E+00 0.00000E+00 0.00000E+00
 -1        25 0.00000E+00 0.00000E+00 0.00000E+00
 -1        26 0.00000E+00 0.00000E+00 0.00000E+00
 -1        27 0.00000E+00 0.00000E+00 0.00000E+00
 -1        28 0.00000E+00 0.00000E+00 0.00000E+00
 -1        29 0.00000E+00 0.00000E+00 0.00000E+00
 -1        30 0.00000E+00 0.00000E+00 0.00000E+00
 -1        31 0.00000E+00 0.00000E+00 0.00000E+00
 -1        32 0.00000E+00 0.00000E+00 0.00000E+00
 -1        44 1.27626E-04-1.26691E-03 1.85586E-04
 -1        45 3.12610E-05-9.85813E-04 2.99230E-04
 -1        46-3.52375E-05-7.27045E-04 3.42206E-04
 -1        47 4.16384E-05-2.94590E-04 2.25227E-04
 -1        48-4.16570E-05-2.94615E-04 2.25291E-04
 -1        49 3.52281E-05-7.27076E-04 3.42305E-04
 -1        50-3.14978E-05-9.85822E-04 2.99268E-04
 -1        51-1.27705E-04-1.26689E-03 1.85564E-04
 -1        74-1.17817E-04-1.27873E-03-1.85629E-04
 -1        75-2.54374E-05-9.92476E-04-2.99149E-04
 -1        76 3.14265E-05-7.22861E-04-3.42209E-04
 -1        77-4.34354E-05-2.92625E-04-2.25298E-04
 -1        89 1.17459E-04-1.27894E-03-1.85590E-04
 -1        90 2.51859E-05-9.92501E-04-2.99092E-04
 -1        91-3.14920E-05-7.22872E-04-3.42123E-04
 -1        92 4.33989E-05-2.92618E-04-2.25241E-04
 -1        98 0.00000E+00 0.00000E+00 0.00000E+00
 -1        99 0.00000E+00 0.00000E+00 0.00000E+00
 -1       100 0.00000E+00 0.00000E+00 0.00000E+00
 -1       101 0.00000E+00 0.00000E+00 0.00000E+00
 -1       102 0.00000E+00 0.00000E+00 0.00000E+00
 -1       124-4.49631E-06-1.17576E-03 1.75022E-04
 -1       125-1.77479E-07-1.39791E-03 1.83490E-04
 -1       126 4.29129E-06-1.17570E-03 1.74861E-04
 -1       127-3.73759E-08-1.03195E-03 3.31132E-04
 -1       128 3.07373E-06-7.59238E-04 3.67324E-04
 -1       129-6.56590E-08-7.04661E-04 3.74755E-04
 -1       130-3.14774E-06-7.59233E-04 3.67313E-04
 -1       131-2.73399E-10-2.97583E-04 2.18762E-04
 -1       153-1.02890E-04-1.52175E-03 8.24404E-05
 -1       154 1.22739E-06-1.34923E-03 1.91581E-08
 -1       155 9.93653E-05-1.52221E-03-8.25561E-05
 -1       156-6.61982E-07-1.11486E-03-7.94523E-07
 -1       157 2.06722E-05-6.29258E-04 1.47313E-04
 -1       158 2.56007E-07-6.42355E-04-3.02752E-07
 -1       159-2.00029E-05-6.28550E-04-1.47281E-04
 -1       160 9.88465E-08-2.43882E-04-5.12222E-08
 -1       182-4.67406E-06-1.17122E-03-1.74969E-04
 -1       183-2.33158E-07-1.40384E-03-1.83700E-04
 -1       184 4.28237E-06-1.17128E-03-1.74939E-04
 -1       185-9.33216E-08-1.03202E-03-3.29869E-04
 -1       186 2.45800E-06-7.60299E-04-3.67412E-04
 -1       187-6.53020E-08-7.04508E-04-3.74255E-04
 -1       188-2.56008E-06-7.60313E-04-3.67376E-04
 -1       189-1.01433E-08-2.97431E-04-2.18637E-04
 -1       211-9.96313E-05-1.52237E-03-8.24094E-05
 -1       212-1.44627E-06-1.34928E-03 1.15749E-08
 -1       213 1.02783E-04-1.52175E-03 8.24741E-05
 -1       214 4.86530E-07-1.11491E-03-7.11355E-07
 -1       215 1.99173E-05-6.28552E-04-1.47225E-04
 -1       216-3.49425E-07-6.42358E-04-2.19088E-07
 -1       217-2.07323E-05-6.29280E-04 1.47389E-04
 -1       218-1.31350E-07-2.43891E-04-8.96655E-09
 -1       250-1.50437E-07-1.50888E-03 8.17581E-05
 -1       251-1.43070E-06-9.57793E-04 1.33888E-07
 -1       252-1.00275E-07-1.22200E-03-9.69121E-08
 -1       253 1.21001E-06-9.57774E-04 1.24981E-07
 -1       254-1.74590E-07-1.51305E-03-8.20958E-05
 -1       255-8.09340E-08-1.09135E-03-8.87531E-09
 -1       256-5.32246E-08-6.20610E-04 1.64465E-04
 -1       257-3.00688E-08-7.24851E-04 2.25423E-08
 -1       258-4.38480E-08-6.42346E-04 4.90946E-09
 -1       259-5.57248E-08-7.24848E-04-1.64893E-08
 -1       260-5.40354E-08-6.20220E-04-1.64489E-04
 -1       261-1.53882E-08-2.75897E-04-2.87815E-09
 -3
    1PSTEP                         4           4           1          
  100CL  104 2.00000E-02          81                     1    4           1
 -4  DISP        4    1
 -5  D1          1    2    1    0
 -5  D2          1    2    2    0
 -5  D3          1    2    3    0
 -5  ALL         1    2    0    0    1ALL
 -1         5 0.00000E+00 0.00000E+00 0.00000E+00
 -1         6 0.00000E+00 0.00000E+00 0.00000E+00
 -1         7 0.00000E+00 0.00000E+00 0.00000E+00
 -1         8 0.00000E+00 0.00000E+00 0.00000E+00
 -1        21 0.00000E+00 0.00000E+00 0.00000E+00
 -1        22 0.00000E+00 0.00000E+00 0.00000E+00
 -1        23 0.00000E+00 0.00000E+00 0.00000E+00
 -1        24 0.00000E+00 0.00000E+00 0.00000E+00
 -1        25 0.00000E+00 0.00000E+00 0.00000E+00
 -1        26 0.00000E+00 0.00000E+00 0.00000E+00
 -1        27 0.00000E+00 0.00000E+00 0.00000E+00
 -1        28 0.00000E+00 0.00000E+00 0.00000E+00
 -1        29 0.00000E+00 0.00000E+00 0.00000E+00
 -1        30 0.00000E+00 0.00000E+00 0.00000E+00
 -1        31 0.00000E+00 0.00000E+00 0.00000E+00
 -1        32 0.00000E+00 0.00000E+00 0.00000E+00
 -1        44-9.49967E-05 9.87437E-04-1.43862E-04
 -1        45-2.25217E-05 7.67347E-04-2.31964E-04
 -1        46 2.59944E-05 5.62288E-04-2.65611E-04
 -1        47-3.29348E-05 2.27773E-04-1.74700E-04
 -1        48 3.29263E-05 2.27777E-04-1.74694E-04
 -1        49-2.59910E-05 5.62293E-04-2.65609E-04
 -1        50 2.24602E-05 7.67384E-04-2.31973E-04
 -1        51 9.49459E-05 9.87520E-04-1.43886E-04
 -1        74 9.21852E-05 9.91582E-04 1.43929E-04
 -1        75 2.06304E-05 7.69386E-04 2.31914E-04
 -1        76-2.51022E-05 5.61339E-04 2.65568E-04
 -1        77 3.34226E-05 2.27160E-04 1.74698E-04
 -1        89-9.22182E-05 9.91503E-04 1.43889E-04
 -1        90-2.06546E-05 7.69419E-04 2.31897E-04
 -1        91 2.51308E-05 5.61344E-04 2.65601E-04
 -1        92-3.34162E-05 2.27169E-04 1.74718E-04
 -1        98 0.00000E+00 0.00000E+00 0.00000E+00
 -1        99 0.00000E+00 0.00000E+00 0.00000E+00
 -1       100 0.00000E+00 0.00000E+00 0.00000E+00
 -1       101 0.00000E+00 0.00000E+00 0.00000E+00
 -1       102 0.00000E+00 0.00000E+00 0.00000E+00
 -1       124 4.22894E-06 9.10308E-04-1.35632E-04
 -1       125-5.66111E-08 1.08684E-03-1.42367E-04
 -1       126-4.30293E-06 9.10289E-04-1.35607E-04
 -1       127-1.81550E-08 8.00404E-04-2.56609E-04
 -1       128-2.43595E-06 5.89607E-04-2.84937E-04
 -1       129-1.62369E-08 5.46965E-04-2.90455E-04
 -1       130 2.41895E-06 5.89600E-04-2.84938E-04
 -1       131-1.10372E-09 2.30888E-04-1.69739E-04
 -1       153 7.77982E-05 1.17780E-03-6.39160E-05
 -1       154-3.33883E-07 1.04317E-03-6.64249E-08
 -1       155-7.70514E-05 1.18050E-03 6.38572E-05
 -1       156 2.96197E-07 8.64750E-04 1.78058E-07
 -1       157-1.55927E-05 4.88066E-04-1.14355E-04
 -1       158-9.64815E-08 4.98250E-04 9.66661E-08
 -1       159 1.54109E-05 4.87473E-04 1.14350E-04
 -1       160-7.24170E-08 1.89484E-04 7.12064E-09
 -1       182 2.20129E-06 9.08735E-04 1.35609E-04
 -1       183-3.65979E-08 1.08882E-03 1.42254E-04
 -1       184-2.24315E-06 9.08715E-04 1.35647E-04
 -1       185 8.93610E-09 8.00736E-04 2.56158E-04
 -1       186-1.85709E-06 5.89948E-04 2.84971E-04
 -1       187-8.10610E-10 5.46493E-04 2.90352E-04
 -1       188 1.86756E-06 5.89948E-04 2.84977E-04
 -1       189 5.62556E-09 2.30798E-04 1.69724E-04
 -1       211 7.69929E-05 1.18047E-03 6.39513E-05
 -1       212 2.28969E-07 1.04322E-03-5.04543E-08
 -1       213-7.78544E-05 1.17788E-03-6.39177E-05
 -1       214-2.84026E-07 8.64751E-04 1.97330E-07
 -1       215-1.54147E-05 4.87491E-04 1.14347E-04
 -1       216 6.55397E-08 4.98275E-04 1.06179E-07
 -1       217 1.55747E-05 4.88078E-04-1.14350E-04
 -1       218 7.43228E-08 1.89489E-04 6.02460E-09
 -1       250-1.70952E-08 1.17407E-03-6.34650E-05
 -1       251-6.94368E-07 7.43631E-04-6.24969E-08
 -1       252 2.93748E-08 9.47817E-04-6.71596E-08
 -1       253 6.70638E-07 7.43601E-04-1.72102E-08
 -1       254-5.97860E-09 1.17310E-03 6.34762E-05
 -1       255-1.71712E-08 8.45787E-04 2.16302E-08
 -1       256-3.11855E-09 4.81486E-04-1.27492E-04
 -1       257 2.14649E-07 5.62150E-04-1.66055E-10
 -1       258 9.44496E-09 4.99212E-04 6.16217E-09
 -1       259-2.19034E-07 5.62139E-04-1.75608E-08
 -1       260 4.73092E-09 4.81681E-04 1.27499E-04
 -1       261-3.35933E-09 2.14281E-04 1.74273E-08
 -3
    1PSTEP                         5           5           1          
  100CL  105 2.50000E-02          81                     1    5           1
 -4  DISP        4    1
 -5  D1          1    2    1    0
 -5  D2          1    2    2    0
 -5  D3          1    2    3    0
 -5  ALL         1    2    0    0    1ALL
 -1         5 0.00000E+00 0.00000E+00 0.00000E+00
 -1         6 0.00000E+00 0.00000E+00 0.00000E+00
 -1         7 0.00000E+00 0.00000E+00 0.00000E+00
 -1         8 0.00000E+00 0.00000E+00 0.00000E+00
 -1        21 0.00000E+00 0.00000E+00 0.00000E+00
 -1        22 0.00000E+00 0.00000E+00 0.00000E+00
 -1        23 0.00000E+00 0.00000E+00 0.00000E+00
 -1        24 0.00000E+00 0.00000E+00 0.00000E+00
 -1        25 0.00000E+00 0.00000E+00 0.00000E+00
 -1        26 0.00000E+00 0.00000E+00 0.00000E+00
 -1        27 0.00000E+00 0.00000E+00 0.00000E+00
 -1        28 0.00000E+00 0.00000E+00 0.00000E+00
 -1        29 0.00000E+00 0.00000E+00 0.00000E+00
 -1        30 0.00000E+00 0.00000E+00 0.00000E+00
 -1        31 0.00000E+00 0.00000E+00 0.00000E+00
 -1        32 0.00000E+00 0.00000E+00 0.00000E+00
 -1        44 7.34465E-05-7.45436E-04 1.08742E-04
 -1        45 1.68251E-05-5.79700E-04 1.74963E-04
 -1        46-1.95551E-05-4.24417E-04 2.00302E-04
 -1        47 2.48585E-05-1.71986E-04 1.32006E-04
 -1        48-2.48509E-05-1.71996E-04 1.32013E-04
 -1        49 1.95843E-05-4.24436E-04 2.00315E-04
 -1        50-1.68238E-05-5.79730E-04 1.74958E-04
 -1        51-7.33875E-05-7.45470E-04 1.08714E-04
 -1        74-7.32617E-05-7.42365E-04-1.08691E-04
 -1        75-1.72947E-05-5.78523E-04-1.75178E-04
 -1        76 2.00176E-05-4.25328E-04-2.00431E-04
 -1        77-2.47771E-05-1.72398E-04-1.31988E-04
 -1        89 7.31737E-05-7.42476E-04-1.08714E-04
 -1        90 1.72528E-05-5.78541E-04-1.75180E-04
 -1        91-2.00340E-05-4.25354E-04-2.00424E-04
 -1        92 2.47665E-05-1.72405E-04-1.31984E-04
 -1        98 0.00000E+00 0.00000E+00 0.00000E+00
 -1        99 0.00000E+00 0.00000E+00 0.00000E+00
 -1       100 0.00000E+00 0.00000E+00 0.00000E+00
 -1       101 0.00000E+00 0.00000E+00 0.00000E+00
 -1       102 0.00000E+00 0.00000E+00 0.00000E+00
 -1       124-3.90165E-06-6.87229E-04 1.02466E-04
 -1       125 1.44169E-09-8.21743E-04 1.07485E-04
 -1       126 3.93317E-06-6.87204E-04 1.02439E-04
 -1       127 1.57925E-08-6.04879E-04 1.93740E-04
 -1       128 1.78938E-06-4.45134E-04 2.15215E-04
 -1       129 3.08685E-09-4.12713E-04 2.19469E-04
 -1       130-1.77223E-06-4.45126E-04 2.15215E-04
 -1       131 5.58761E-09-1.74223E-04 1.28087E-04
 -1       153-6.03518E-05-8.90883E-04 4.83229E-05
 -1       154 8.17855E-07-7.92277E-04-4.43727E-08
 -1       155 5.97882E-05-8.91384E-04-4.83520E-05
 -1       156 6.08396E-07-6.53894E-04 8.09172E-08
 -1       157 1.21962E-05-3.68475E-04 8.62839E-05
 -1       158-4.57316E-07-3.75899E-04 7.35279E-08
 -1       159-1.20762E-05-3.68432E-04-8.62806E-05
 -1       160-1.59071E-07-1.42636E-04 2.49914E-09
 -1       182-2.15671E-06-6.88686E-04-1.02423E-04
 -1       183-4.07372E-08-8.18859E-04-1.07570E-04
 -1       184 2.07519E-06-6.88741E-04-1.02454E-04
 -1       185-2.51884E-08-6.03853E-04-1.93863E-04
 -1       186 1.59523E-06-4.44768E-04-2.15215E-04
 -1       187-8.30112E-09-4.13344E-04-2.19474E-04
 -1       188-1.61248E-06-4.44781E-04-2.15209E-04
 -1       189-4.12698E-09-1.74557E-04-1.28143E-04
 -1       211-5.98732E-05-8.91463E-04-4.83042E-05
 -1       212-8.97311E-07-7.92320E-04-8.11935E-09
 -1       213 6.03483E-05-8.90917E-04 4.83367E-05
 -1       214-6.02079E-07-6.53931E-04 9.54323E-08
 -1       215 1.20581E-05-3.68451E-04-8.62821E-05
 -1       216 4.37776E-07-3.75911E-04 7.78135E-08
 -1       217-1.21925E-05-3.68491E-04 8.62879E-05
 -1       218 1.60388E-07-1.42646E-04 2.35132E-09
 -1       250 2.48916E-09-8.87392E-04 4.79089E-05
 -1       251 3.91862E-07-5.60464E-04-3.14053E-09
 -1       252 6.41491E-09-7.17228E-04-4.47319E-08
 -1       253-4.22689E-07-5.60445E-04 1.28980E-08
 -1       254-1.61241E-08-8.84876E-04-4.80146E-05
 -1       255-1.11923E-08-6.39673E-04 4.67670E-08
 -1       256 3.98434E-09-3.63138E-04 9.63735E-05
 -1       257 2.84176E-08-4.24934E-04-4.07266E-09
 -1       258 4.57391E-09-3.76201E-04 2.49016E-09
 -1       259-3.33535E-08-4.24927E-04-1.42285E-08
 -1       260-2.37325E-09-3.63695E-04-9.63600E-05
 -1       261-1.27170E-09-1.61563E-04 2.39109E-08
 -3
    1PSTEP                         6           6           1          
  100CL  106 3.00000E-02          81                     1    6           1
 -4  DISP        4    1
 -5  D1          1    2    1    0
 -5  D2          1    2    2    0
 -5  D3          1    2    3    0
 -5  ALL         1    2    0    0    1ALL
 -1         5 0.00000E+00 0.00000E+00 0.00000E+00
 -1         6 0.00000E+00 0.00000E+00 0.00000E+00
 -1         7 0.00000E+00 0.00000E+00 0.00000E+00
 -1         8 0.00000E+00 0.00000E+00 0.00000E+00
 -1        21 0.00000E+00 0.00000E+00 0.00000E+00
 -1        22 0.00000E+00 0.00000E+00 0.00000E+00
 -1        23 0.00000E+00 0.00000E+00 0.00000E+00
 -1        24 0.00000E+00 0.00000E+00 0.00000E+00
 -1        25 0.00000E+00 0.00000E+00 0.00000E+00
 -1        26 0.00000E+00 0.00000E+00 0.00000E+00
 -1        27 0.00000E+00 0.00000E+00 0.00000E+00
 -1        28 0.00000E+00 0.00000E+00 0.00000E+00
 -1        29 0.00000E+00 0.00000E+00 0.00000E+00
 -1        30 0.00000E+00 0.00000E+00 0.00000E+00
 -1        31 0.00000E+00 0.00000E+00 0.00000E+00
 -1        32 0.00000E+00 0.00000E+00 0.00000E+00
 -1        44-5.09973E-05 5.41579E-04-7.87469E-05
 -1        45-1.16890E-05 4.20617E-04-1.26919E-04
 -1        46 1.39598E-05 3.07549E-04-1.45402E-04
 -1        47-1.81913E-05 1.24496E-04-9.56198E-05