
 displacements (vx,vy,vz) for set NALL and time  0.5000000E-02

         5  0.000000E+00  0.000000E+00  0.000000E+00
         6  0.000000E+00  0.000000E+00  0.000000E+00
         7  0.000000E+00  0.000000E+00  0.000000E+00
         8  0.000000E+00  0.000000E+00  0.000000E+00
        21  0.000000E+00  0.000000E+00  0.000000E+00
        22  0.000000E+00  0.000000E+00  0.000000E+00
        23  0.000000E+00  0.000000E+00  0.000000E+00
        24  0.000000E+00  0.000000E+00  0.000000E+00
        25  0.000000E+00  0.000000E+00  0.000000E+00
        26  0.000000E+00  0.000000E+00  0.000000E+00
        27  0.000000E+00  0.000000E+00  0.000000E+00
        28  0.000000E+00  0.000000E+00  0.000000E+00
        29  0.000000E+00  0.000000E+00  0.000000E+00
        30  0.000000E+00  0.000000E+00  0.000000E+00
        31  0.000000E+00  0.000000E+00  0.000000E+00
        32  0.000000E+00  0.000000E+00  0.000000E+00
        44 -7.084914E-05 -3.467487E-03  4.476498E-04
        45  5.479538E-05 -2.558575E-03  7.851509E-04
        46 -4.491110E-05 -1.794903E-03  9.497374E-04
        47  1.313979E-04 -6.741367E-04  5.421284E-04
        48 -1.314275E-04 -6.741528E-04  5.421747E-04
        49  4.481225E-05 -1.794912E-03  9.498262E-04
        50 -5.501394E-05 -2.558590E-03  7.852896E-04
        51  7.048226E-05 -3.467500E-03  4.478222E-04
        74  3.528132E-04 -4.417538E-03 -4.939918E-04
        75  2.028828E-04 -2.973910E-03 -7.857234E-04
        76 -1.161697E-04 -1.596843E-03 -9.512088E-04
        77 -2.113361E-04 -5.248620E-04 -5.570607E-04
        89 -3.531797E-04 -4.417522E-03 -4.938285E-04
        90 -2.030984E-04 -2.973898E-03 -7.855945E-04
        91  1.160671E-04 -1.596830E-03 -9.511135E-04
        92  2.113079E-04 -5.248474E-04 -5.570145E-04
        98  0.000000E+00  0.000000E+00  0.000000E+00
        99  0.000000E+00  0.000000E+00  0.000000E+00
       100  0.000000E+00  0.000000E+00  0.000000E+00
       101  0.000000E+00  0.000000E+00  0.000000E+00
       102  0.000000E+00  0.000000E+00  0.000000E+00
       124  1.398912E-04 -2.963397E-03  4.284646E-04
       125 -1.857629E-07 -3.579835E-03  4.477087E-04
       126 -1.402562E-04 -2.963389E-03  4.283848E-04
       127 -1.055259E-07 -2.558181E-03  9.018653E-04
       128 -7.207790E-06 -1.952620E-03  9.472233E-04
       129 -4.880762E-08 -1.815229E-03  9.396847E-04
       130  7.111025E-06 -1.952617E-03  9.471779E-04
       131 -9.922110E-09 -7.367066E-04  5.562512E-04
       153  7.896006E-05 -3.617988E-03  1.904099E-04
       154 -1.106944E-04 -2.482185E-03 -2.088803E-05
       155 -8.536321E-05 -3.891773E-03 -2.374365E-04
       156 -1.169947E-04 -2.786753E-03 -6.527745E-05
       157 -2.315895E-05 -1.509082E-03  3.924988E-04
       158  8.498260E-05 -1.564145E-03 -2.955710E-05
       159  5.168966E-05 -1.471260E-03 -4.111395E-04
       160  3.888947E-05 -6.574683E-04  4.794745E-06
       182  1.345019E-04 -2.561395E-03 -4.698517E-04
       183 -1.722189E-07 -4.336029E-03 -4.759409E-04
       184 -1.348544E-04 -2.561389E-03 -4.697664E-04
       185 -1.067743E-07 -2.821662E-03 -8.705919E-04
       186 -4.760330E-05 -2.161543E-03 -9.818365E-04
       187 -4.613541E-08 -1.835153E-03 -9.608660E-04
       188  4.750748E-05 -2.161537E-03 -9.817903E-04
       189 -1.029225E-08 -7.224820E-04 -5.645575E-04
       211  8.499646E-05 -3.891769E-03 -2.372694E-04
       212  1.103351E-04 -2.482198E-03 -2.072571E-05
       213 -7.932986E-05 -3.618004E-03  1.905729E-04
       214  1.167636E-04 -2.786751E-03 -6.514769E-05
       215 -5.179280E-05 -1.471255E-03 -4.110460E-04
       216 -8.508326E-05 -1.564148E-03 -2.946303E-05
       217  2.305830E-05 -1.509087E-03  3.925912E-04
       218 -3.892601E-05 -6.574678E-04  4.842679E-06
       250 -1.944946E-07 -4.089891E-03  1.741470E-04
       251  3.738821E-05 -2.568685E-03 -1.040726E-05
       252 -1.984724E-07 -3.128642E-03 -1.597860E-05
       253 -3.776363E-05 -2.568677E-03 -1.050252E-05
       254 -1.864984E-07 -4.395573E-03 -2.540259E-04
       255 -1.056215E-07 -2.596976E-03 -3.176384E-05
       256 -5.271298E-08 -1.605450E-03  3.945006E-04
       257 -4.218902E-05 -1.746918E-03 -1.196304E-05
       258 -5.521831E-08 -1.790092E-03 -1.456345E-05
       259  4.208498E-05 -1.746917E-03 -1.200604E-05
       260 -5.153203E-08 -1.626447E-03 -4.172589E-04
       261 -1.239577E-08 -7.159945E-04 -1.830773E-06

 forces (fx,fy,fz) for set NALL and time  0.5000000E-02

         5  2.228844E+00 -4.186905E+00 -1.094089E+00
         6 -2.228628E+00 -4.186991E+00 -1.094076E+00
         7  3.334995E+00  9.582752E-01  1.254120E+00
         8 -3.334706E+00  9.581159E-01  1.254148E+00
        21 -2.708491E+00  5.628696E+00 -1.790164E+01
        22  1.599350E-04 -1.002491E+01 -6.403421E-01
        23  2.707980E+00  5.628556E+00 -1.790082E+01
        24 -4.694872E+00  1.712093E+01 -1.022206E+01
        25  7.109057E-01 -1.163345E+01 -4.678348E-01
        26  2.365590E+00  1.355037E+01  1.052205E+01
        27 -1.788979E+00 -2.912856E-01  1.759579E+01
        28  1.493947E-04 -1.726743E+00  1.773159E+00
        29  1.788460E+00 -2.914565E-01  1.759491E+01
        30 -2.365378E+00  1.355038E+01  1.052090E+01
        31 -7.104941E-01 -1.163343E+01 -4.676733E-01
        32  4.695060E+00  1.712092E+01 -1.022315E+01
        44  1.327713E+00  5.203660E+01  1.443882E+00
        45 -7.131442E-06 -6.080380E-01  1.525634E-01
        46  5.450933E-06  1.541473E+00 -4.634098E-01
        47 -1.911801E-06 -1.167011E+00  5.403038E-01
        48  2.089419E-06 -1.167010E+00  5.403044E-01
        49 -4.880397E-06  1.541474E+00 -4.634100E-01
        50  5.313818E-06 -6.080403E-01  1.525630E-01
        51 -1.327804E+00  5.203674E+01  1.443992E+00
        74 -6.340470E+00  1.848738E+01 -1.005146E+00
        75  6.456964E-07 -6.081234E-01 -1.525356E-01
        76 -1.637913E-06  1.541534E+00  4.634018E-01
        77  4.014500E-06 -1.167024E+00 -5.403001E-01
        89  6.340189E+00  1.848744E+01 -1.005610E+00
        90 -3.468034E-06 -6.081198E-01 -1.525355E-01
        91  2.119466E-06  1.541534E+00  4.634019E-01
        92 -3.430511E-06 -1.167026E+00 -5.403000E-01
        98  1.316789E-04  3.814733E+01 -1.716919E+01
        99 -3.733344E-01 -7.604541E+00  6.570100E-01
       100  5.065633E-04 -2.296087E+01 -3.653915E-01
       101  3.723836E-01 -7.604640E+00  6.585235E-01
       102  3.456375E-05  3.522928E+01  1.646560E+01
       124  1.645430E+01  1.931576E+01 -6.291398E-01
       125 -2.120394E-04  1.126011E+02  2.975722E+00
       126 -1.645377E+01  1.931579E+01 -6.293771E-01
       127  4.398522E-07 -1.216077E+00  3.051177E-01
       128  4.557361E-06 -2.615777E+00  9.358650E-01
       129 -1.978075E-07  3.082946E+00 -9.268166E-01
       130 -5.016816E-06 -2.615776E+00  9.358641E-01
       131  5.295621E-07 -2.334021E+00  1.080606E+00
       153  1.211413E+01 -1.326376E+02 -2.316584E+00
       154 -1.623654E+00  9.929588E+01  4.260270E-01
       155  2.273550E+00 -1.090813E+02  1.429977E+00
       156 -1.171602E-05 -1.216153E+00 -2.478953E-05
       157 -7.607186E-06 -2.615785E+00  7.018891E-01
       158  5.803630E-06  3.083006E+00  1.159795E-05
       159 -1.389404E-07 -2.615848E+00 -7.018921E-01
       160 -1.208095E-06 -2.334038E+00 -3.363793E-06
       182  7.800441E+00  6.432866E+01  4.512625E-01
       183 -5.232789E-05  5.222944E+01 -1.419669E+00
       184 -7.799815E+00  6.432865E+01  4.523236E-01
       185  1.291361E-06 -6.742573E+00 -3.050653E-01
       186  2.521123E-06 -8.142179E+00 -9.358385E-01
       187 -4.799455E-07 -2.443243E+00  9.268048E-01
       188 -2.878671E-06 -8.142177E+00 -9.358381E-01
       189  4.008591E-07 -7.860373E+00 -1.080595E+00
       211 -2.273664E+00 -1.090812E+02  1.431175E+00
       212  1.623443E+00  9.929571E+01  4.254676E-01
       213 -1.211429E+01 -1.326378E+02 -2.316173E+00
       214  9.290827E-06 -1.216154E+00 -2.298062E-05
       215 -1.520327E-06 -2.615846E+00 -7.018923E-01
       216 -4.644068E-06  3.083005E+00  1.076122E-05
       217  6.236506E-06 -2.615787E+00  7.018893E-01
       218  5.972776E-07 -2.334038E+00 -4.638790E-06
       250 -5.934365E-04 -2.953905E+02 -5.867353E+00
       251  6.552604E+00  8.809538E+01  5.575220E-01
       252 -6.268399E-04  2.062229E+02  1.293592E+00
       253 -6.551672E+00  8.809591E+01  5.554153E-01
       254 -5.821945E-05 -2.678704E+02  1.552749E+00
       255  3.291469E-06 -2.432314E+00 -6.072735E-05
       256  8.448551E-07 -5.231571E+00  1.403768E+00
       257  7.240933E-06 -5.231633E+00 -2.667987E-05
       258 -6.528470E-07  6.166016E+00  2.392870E-05
       259 -6.920824E-06 -5.231632E+00 -2.695524E-05
       260  1.693383E-06 -5.231707E+00 -1.403780E+00
       261 -4.982013E-07 -4.668080E+00 -9.360839E-06

 displacements (vx,vy,vz) for set NALL and time  0.1000000E-01

         5  0.000000E+00  0.000000E+00  0.000000E+00
         6  0.000000E+00  0.000000E+00  0.000000E+00
         7  0.000000E+00  0.000000E+00  0.000000E+00
         8  0.000000E+00  0.000000E+00  0.000000E+00
        21  0.000000E+00  0.000000E+00  0.000000E+00
        22  0.000000E+00  0.000000E+00  0.000000E+00
        23  0.000000E+00  0.000000E+00  0.000000E+00
        24  0.000000E+00  0.000000E+00  0.000000E+00
        25  0.000000E+00  0.000000E+00  0.000000E+00
        26  0.000000E+00  0.000000E+00  0.000000E+00
        27  0.000000E+00  0.000000E+00  0.000000E+00
        28  0.000000E+00  0.000000E+00  0.000000E+00
        29  0.000000E+00  0.000000E+00  0.000000E+00
        30  0.000000E+00  0.000000E+00  0.000000E+00
        31  0.000000E+00  0.000000E+00  0.000000E+00
        32  0.000000E+00  0.000000E+00  0.000000E+00
        44 -1.404923E-04  1.620546E-03 -2.337340E-04
        45 -2.970652E-05  1.255517E-03 -3.771315E-04
        46  3.837030E-05  9.101016E-04 -4.324280E-04
        47 -5.563256E-05  3.677822E-04 -2.838428E-04
        48  5.563001E-05  3.677851E-04 -2.838475E-04
        49 -3.841092E-05  9.100737E-04 -4.324071E-04
        50  2.968849E-05  1.255539E-03 -3.771318E-04
        51  1.404292E-04  1.620481E-03 -2.337213E-04
        74  1.538899E-04  1.608153E-03  2.339349E-04
        75  3.728435E-05  1.248178E-03  3.772334E-04
        76 -4.225628E-05  9.140900E-04  4.325033E-04
        77  5.350799E-05  3.697747E-04  2.838980E-04
        89 -1.539662E-04  1.608160E-03  2.339980E-04
        90 -3.734701E-05  1.248221E-03  3.772990E-04
        91  4.225085E-05  9.140641E-04  4.325331E-04
        92 -5.351812E-05  3.697819E-04  2.839225E-04
        98  0.000000E+00  0.000000E+00  0.000000E+00
        99  0.000000E+00  0.000000E+00  0.000000E+00
       100  0.000000E+00  0.000000E+00  0.000000E+00
       101  0.000000E+00  0.000000E+00  0.000000E+00
       102  0.000000E+00  0.000000E+00  0.000000E+00
       124  1.350286E-06  1.475176E-03 -2.203215E-04
       125  3.361849E-08  1.772538E-03 -2.311521E-04
       126 -1.359042E-06  1.475180E-03 -2.202892E-04
       127 -4.046079E-08  1.300737E-03 -4.161569E-04
       128 -2.404516E-06  9.600777E-04 -4.634960E-04
       129  6.803221E-09  8.893544E-04 -4.717170E-04
       130  2.393506E-06  9.600972E-04 -4.635126E-04
       131 -4.069570E-09  3.754255E-04 -2.760234E-04
       153  1.202262E-04  1.918118E-03 -1.038028E-04
       154  2.703010E-06  1.689414E-03  1.186256E-07
       155 -1.252216E-04  1.911871E-03  1.040254E-04
       156 -1.629515E-07  1.406444E-03 -6.834709E-07
       157 -2.400090E-05  7.913796E-04 -1.861041E-04
       158 -3.524320E-07  8.092263E-04 -2.492850E-07
       159  2.490334E-05  7.933166E-04  1.862799E-04
       160 -3.185269E-08  3.083339E-04 -6.310454E-08
       182  7.985740E-06  1.479487E-03  2.204565E-04
       183 -9.117843E-08  1.768692E-03  2.312314E-04
       184 -8.114277E-06  1.479489E-03  2.205308E-04
       185 -9.098328E-09  1.301935E-03  4.179785E-04
       186 -4.230758E-06  9.597365E-04  4.635605E-04
       187 -1.878965E-08  8.903517E-04  4.724904E-04
       188  4.210394E-06  9.597245E-04  4.635688E-04
       189 -3.760855E-10  3.754835E-04  2.761669E-04
       211  1.250789E-04  1.911951E-03  1.041521E-04
       212 -2.853077E-06  1.689559E-03  1.990579E-07
       213 -1.203232E-04  1.918147E-03 -1.038009E-04
       214  1.230508E-07  1.406402E-03 -6.465370E-07
       215 -2.491635E-05  7.933206E-04  1.862938E-04
       216  3.217568E-07  8.092634E-04 -2.313657E-07
       217  2.396307E-05  7.913863E-04 -1.860781E-04
       218  2.679610E-08  3.083291E-04 -5.543367E-08
       250 -2.694941E-09  1.911507E-03 -1.030656E-04
       251  9.036093E-07  1.209608E-03  2.390183E-07
       252 -5.348226E-08  1.542834E-03  1.482583E-07
       253 -1.023728E-06  1.209520E-03  2.312813E-07
       254 -7.654347E-08  1.914204E-03  1.031434E-04
       255 -3.004336E-08  1.374124E-03  1.303139E-07
       256 -2.051720E-09  7.836712E-04 -2.070895E-04
       257 -3.210387E-07  9.135927E-04  9.024196E-08
       258 -7.064656E-09  8.130638E-04  6.844209E-08
       259  2.975441E-07  9.135775E-04  7.407642E-08
       260 -1.244480E-08  7.831633E-04  2.071733E-04
       261 -1.792750E-09  3.485468E-04 -1.012996E-08

 forces (fx,fy,fz) for set NALL and time  0.1000000E-01

         5 -1.638608E+00  3.530040E-01  9.238348E-01
         6  1.638922E+00  3.527285E-01  9.241477E-01
         7 -1.675499E+00  3.778101E-01 -9.244793E-01
         8  1.675238E+00  3.781752E-01 -9.241880E-01
        21  1.003936E+00 -1.617954E+00  8.951174E+00
        22 -1.322469E-04  6.988315E-01  1.417585E+00
        23 -1.003913E+00 -1.618337E+00  8.951247E+00
        24  1.196395E+00 -5.863210E+00  4.721629E+00
        25 -4.766174E-02  2.437295E+00 -9.781947E-03
        26 -1.155147E+00 -5.893123E+00 -4.713082E+00
        27  1.038443E+00 -1.646537E+00 -8.959712E+00
        28  7.996437E-05  7.772956E-01 -1.399353E+00
        29 -1.038563E+00 -1.646214E+00 -8.959886E+00
        30  1.155111E+00 -5.893241E+00 -4.713514E+00
        31  4.794061E-02  2.436942E+00 -9.939279E-03
        32 -1.195966E+00 -5.862927E+00  4.721427E+00
        44 -5.909363E+00 -1.488568E+01 -7.511715E-01
        45  6.108191E-06  5.208353E-01 -1.306833E-01
        46 -4.673666E-06 -1.320401E+00  3.969495E-01
        47  1.646703E-06  9.996432E-01 -4.628157E-01
        48 -1.798853E-06  9.996421E-01 -4.628162E-01
        49  4.184980E-06 -1.320402E+00  3.969497E-01
        50 -4.551273E-06  5.208373E-01 -1.306830E-01
        51  5.908812E+00 -1.488627E+01 -7.503920E-01
        74  6.181542E+00 -1.509944E+01  7.500696E-01
        75 -5.479051E-07  5.209086E-01  1.306595E-01
        76  1.404730E-06 -1.320454E+00 -3.969427E-01
        77 -3.448404E-06  9.996540E-01  4.628125E-01
        89 -6.180932E+00 -1.510036E+01  7.491283E-01
        90  2.965445E-06  5.209054E-01  1.306595E-01
        91 -1.817195E-06 -1.320453E+00 -3.969428E-01
        92  2.948164E-06  9.996559E-01  4.628125E-01
        98 -6.934780E-04 -1.288981E+01  8.222117E+00
        99 -4.923115E-02  3.929943E+00  4.793374E-03
       100  4.050785E-05  5.352759E+00 -6.148309E-04
       101  4.895811E-02  3.931172E+00  4.748489E-03
       102  4.275691E-04 -1.298760E+01 -8.232159E+00
       124 -6.224204E+00 -1.723072E+01  4.638051E-01
       125  6.008407E-04 -3.068385E+01 -1.393441E+00
       126  6.224583E+00 -1.723083E+01  4.653538E-01
       127 -3.768010E-07  1.041671E+00 -2.613589E-01
       128 -3.909527E-06  2.240633E+00 -8.016472E-01
       129  1.694643E-07 -2.640803E+00  7.938964E-01
       130  4.303057E-06  2.240632E+00 -8.016464E-01
       131 -4.536188E-07  1.999285E+00 -9.256298E-01
       153  4.311977E+00  5.150840E+01  1.168874E+00
       154  4.282483E-01 -3.297020E+01 -2.270075E-03
       155 -4.680964E+00  5.171845E+01 -1.168829E+00
       156  1.002928E-05  1.041737E+00  2.122524E-05
       157  6.521884E-06  2.240640E+00 -6.012271E-01
       158 -4.970747E-06 -2.640853E+00 -9.928970E-06
       159  1.166844E-07  2.240694E+00  6.012297E-01
       160  1.038851E-06  1.999300E+00  2.881453E-06
       182 -6.454825E+00 -1.695624E+01 -4.633174E-01
       183 -1.501391E-04 -3.145036E+01  1.390921E+00
       184  6.454586E+00 -1.695642E+01 -4.617379E-01
       185 -1.106189E-06  1.069527E+00  2.613140E-01
       186 -2.162738E-06  2.268408E+00  8.016245E-01
       187  4.111391E-07 -2.613210E+00 -7.938863E-01
       188  2.468975E-06  2.268406E+00  8.016241E-01
       189 -3.433739E-07  2.027017E+00  9.256210E-01
       211  4.680269E+00  5.171993E+01 -1.166882E+00
       212 -4.293257E-01 -3.296914E+01 -1.864761E-03
       213 -4.311770E+00  5.150783E+01  1.167988E+00
       214 -7.951957E-06  1.041737E+00  1.967579E-05
       215  1.304585E-06  2.240692E+00  6.012298E-01
       216  3.977536E-06 -2.640853E+00 -9.212265E-06
       217 -5.347814E-06  2.240641E+00 -6.012273E-01
       218 -5.156438E-07  1.999300E+00  3.973604E-06
       250  1.829320E-03  1.047596E+02  2.303957E+00
       251  4.430518E-01 -4.738439E+01  1.090749E-02
       252 -8.820849E-04 -6.996883E+01 -1.509722E-03
       253 -4.418073E-01 -4.738801E+01  1.234495E-02
       254 -1.355715E-03  1.056488E+02 -2.317929E+00
       255 -2.819482E-06  2.083480E+00  5.200271E-05
       256 -7.237216E-07  4.481281E+00 -1.202446E+00
       257 -6.205300E-06  4.481333E+00  2.284548E-05
       258  5.592697E-07 -5.281711E+00 -2.048561E-05
       259  5.931035E-06  4.481333E+00  2.308133E-05
       260 -1.450557E-06  4.481397E+00  1.202456E+00
       261  4.267425E-07  3.998604E+00  8.017816E-06

 displacements (vx,vy,vz) for set NALL and time  0.1500000E-01

         5  0.000000E+00  0.000000E+00  0.000000E+00
         6  0.000000E+00  0.000000E+00  0.000000E+00
         7  0.000000E+00  0.000000E+00  0.000000E+00
         8  0.000000E+00  0.000000E+00  0.000000E+00
        21  0.000000E+00  0.000000E+00  0.000000E+00
        22  0.000000E+00  0.000000E+00  0.000000E+00
        23  0.000000E+00  0.000000E+00  0.000000E+00
        24  0.000000E+00  0.000000E+00  0.000000E+00
        25  0.000000E+00  0.000000E+00  0.000000E+00
        26  0.000000E+00  0.000000E+00  0.000000E+00
        27  0.000000E+00  0.000000E+00  0.000000E+00
        28  0.000000E+00  0.000000E+00  0.000000E+00
        29  0.000000E+00  0.000000E+00  0.000000E+00
        30  0.000000E+00  0.000000E+00  0.000000E+00
        31  0.000000E+00  0.000000E+00  0.000000E+00
        32  0.000000E+00  0.000000E+00  0.000000E+00
        44  1.155144E-04 -1.279738E-03  1.852626E-04
        45  2.513512E-05 -9.929773E-04  2.985576E-04
        46 -3.142810E-05 -7.217265E-04  3.421483E-04
        47  4.356486E-05 -2.920158E-04  2.249298E-04
        48 -4.356305E-05 -2.920154E-04  2.249499E-04
        49  3.144245E-05 -7.217389E-04  3.421801E-04
        50 -2.519272E-05 -9.929464E-04  2.985087E-04
        51 -1.156730E-04 -1.279548E-03  1.852418E-04
        74 -1.233783E-04 -1.271964E-03 -1.852048E-04
        75 -2.963448E-05 -9.886006E-04 -2.984713E-04
        76  3.367254E-05 -7.239164E-04 -3.421934E-04
        77 -4.229858E-05 -2.932584E-04 -2.249668E-04
        89  1.233235E-04 -1.272091E-03 -1.852395E-04
        90  2.956609E-05 -9.886124E-04 -2.985116E-04
        91 -3.362738E-05 -7.238985E-04 -3.421592E-04
        92  4.230289E-05 -2.932515E-04 -2.249392E-04
        98  0.000000E+00  0.000000E+00  0.000000E+00
        99  0.000000E+00  0.000000E+00  0.000000E+00
       100  0.000000E+00  0.000000E+00  0.000000E+00
       101  0.000000E+00  0.000000E+00  0.000000E+00
       102  0.000000E+00  0.000000E+00  0.000000E+00
       124 -2.491131E-06 -1.169531E-03  1.745277E-04
       125 -6.937205E-08 -1.402980E-03  1.830990E-04
       126  2.371754E-06 -1.169574E-03  1.745315E-04
       127 -1.124458E-08 -1.030459E-03  3.298304E-04
       128  2.202895E-06 -7.601496E-04  3.670705E-04
       129 -1.119508E-08 -7.045827E-04  3.738263E-04
       130 -2.214721E-06 -7.601541E-04  3.670589E-04
       131  2.969978E-09 -2.974925E-04  2.186573E-04
       153 -9.766781E-05 -1.518975E-03  8.223115E-05
       154 -1.547298E-06 -1.342053E-03  5.017402E-08
       155  1.004066E-04 -1.514516E-03 -8.232759E-05
       156  1.313101E-07 -1.114495E-03  4.647583E-07
       157  1.953833E-05 -6.274062E-04  1.473625E-04
       158  1.372823E-07 -6.410670E-04  1.563645E-07
       159 -2.014378E-05 -6.285728E-04 -1.474117E-04
       160 -1.510231E-08 -2.440119E-04  1.759839E-08
       182 -6.821605E-06 -1.172157E-03 -1.745441E-04
       183 -8.698028E-08 -1.400242E-03 -1.830081E-04
       184  6.734729E-06 -1.172155E-03 -1.744928E-04
       185  1.435865E-08 -1.030847E-03 -3.307970E-04
       186  3.358957E-06 -7.596020E-04 -3.670151E-04
       187 -2.024519E-08 -7.048421E-04 -3.741820E-04
       188 -3.364271E-06 -7.596058E-04 -3.670137E-04
       189  7.093478E-09 -2.974285E-04 -2.186943E-04
       211 -1.004156E-04 -1.514599E-03 -8.227798E-05
       212  1.503073E-06 -1.342012E-03 -7.754721E-08
       213  9.760618E-05 -1.518822E-03  8.230123E-05
       214 -1.114564E-07 -1.114486E-03  4.676004E-07
       215  2.014365E-05 -6.285536E-04 -1.474174E-04
       216 -1.660479E-07 -6.410611E-04  1.744070E-07
       217 -1.955393E-05 -6.274163E-04  1.473531E-04
       218  1.654068E-08 -2.440098E-04  1.745552E-08
       250 -4.899848E-09 -1.513727E-03  8.171651E-05
       251 -8.172742E-07 -9.574785E-04 -1.487431E-07
       252  7.228906E-08 -1.222215E-03 -1.414067E-08
       253  8.545624E-07 -9.574993E-04 -2.724865E-08
       254 -1.849358E-08 -1.515543E-03 -8.152408E-05
       255 -1.557634E-08 -1.088917E-03 -1.034585E-08
       256  2.876162E-09 -6.206266E-04  1.641041E-04
       257  2.696853E-07 -7.240788E-04 -1.265903E-09
       258  1.486361E-08 -6.436282E-04 -2.848412E-09
       259 -2.642985E-07 -7.240819E-04 -2.420794E-08
       260 -6.553011E-10 -6.200701E-04 -1.640965E-04
       261 -5.739451E-09 -2.760847E-04  9.741812E-10

 forces (fx,fy,fz) for set NALL and time  0.1500000E-01

         5  1.310992E+00 -2.719596E-01 -7.359411E-01
         6 -1.310818E+00 -2.720887E-01 -7.363695E-01
         7  1.328911E+00 -2.875138E-01  7.357089E-01
         8 -1.328911E+00 -2.875027E-01  7.363094E-01
        21 -8.050284E-01  1.280136E+00 -7.091443E+00
        22  4.511514E-04 -5.413733E-01 -1.127068E+00
        23  8.045864E-01  1.279718E+00 -7.091502E+00
        24 -9.310446E-01  4.627634E+00 -3.733888E+00
        25  2.773391E-02 -1.894793E+00  5.229306E-03
        26  9.090922E-01  4.641572E+00  3.730108E+00
        27 -8.216649E-01  1.299275E+00  7.096737E+00
        28  6.212964E-04 -5.934025E-01  1.115544E+00
        29  8.210857E-01  1.298873E+00  7.096456E+00
        30 -9.092359E-01  4.642023E+00  3.729321E+00
        31 -2.739391E-02 -1.894773E+00  5.668367E-03
        32  9.312323E-01  4.627101E+00 -3.734901E+00
        44  4.788726E+00  1.174998E+01  5.974033E-01
        45 -4.853772E-06 -4.142314E-01  1.039353E-01
        46  3.723427E-06  1.050144E+00 -3.157028E-01
        47 -1.326202E-06 -7.950387E-01  3.680877E-01
        48  1.447216E-06 -7.950378E-01  3.680881E-01
        49 -3.334798E-06  1.050145E+00 -3.157029E-01
        50  3.615562E-06 -4.142330E-01  1.039350E-01
        51 -4.789615E+00  1.174918E+01  5.953611E-01
        74 -4.928869E+00  1.187357E+01 -5.940100E-01
        75  4.250109E-07 -4.142896E-01 -1.039163E-01
        76 -1.119696E-06  1.050186E+00  3.156973E-01
        77  2.759910E-06 -7.950473E-01 -3.680852E-01
        89  4.928440E+00  1.187405E+01 -5.965406E-01
        90 -2.347697E-06 -4.142871E-01 -1.039163E-01
        91  1.447706E-06  1.050186E+00  3.156974E-01
        92 -2.362052E-06 -7.950488E-01 -3.680852E-01
        98 -3.009086E-04  1.018864E+01 -6.512765E+00
        99  3.023366E-02 -3.117920E+00 -3.249599E-03
       100 -7.121685E-04 -4.197227E+00 -1.655571E-04
       101 -2.981643E-02 -3.117652E+00 -3.559550E-03
       102  1.301481E-05  1.024850E+01  6.519834E+00
       124  4.998078E+00  1.364296E+01 -3.695208E-01
       125 -1.377366E-03  2.427685E+01  1.104646E+00
       126 -4.996401E+00  1.364409E+01 -3.707647E-01
       127  2.997184E-07 -8.284632E-01  2.078644E-01
       128  3.118413E-06 -1.782026E+00  6.375679E-01
       129 -1.348122E-07  2.100289E+00 -6.314035E-01
       130 -3.431355E-06 -1.782025E+00  6.375673E-01
       131  3.607787E-07 -1.590077E+00  7.361742E-01
       153 -3.562590E+00 -4.071037E+01 -9.307922E-01
       154 -2.526808E-01  2.591902E+01  4.106920E-03
       155  3.763809E+00 -4.080398E+01  9.255813E-01
       156 -7.967626E-06 -8.285152E-01 -1.686823E-05
       157 -5.195859E-06 -1.782031E+00  4.781694E-01
       158  3.952641E-06  2.100329E+00  7.888823E-06
       159 -8.866709E-08 -1.782073E+00 -4.781714E-01
       160 -8.317930E-07 -1.590088E+00 -2.291793E-06
       182  5.107610E+00  1.346144E+01  3.658038E-01
       183 -1.614888E-03  2.476335E+01 -1.103930E+00
       184 -5.106164E+00  1.346286E+01  3.687337E-01
       185  8.798158E-07 -8.300441E-01 -2.078286E-01
       186  1.725551E-06 -1.783542E+00 -6.375498E-01
       187 -3.270205E-07  2.098917E+00  6.313955E-01
       188 -1.969068E-06 -1.783541E+00 -6.375496E-01
       189  2.730985E-07 -1.591559E+00 -7.361671E-01
       211 -3.764075E+00 -4.080821E+01  9.304496E-01
       212  2.534903E-01  2.591913E+01 -7.998684E-04
       213  3.562123E+00 -4.070593E+01 -9.254855E-01
       214  6.315566E-06 -8.285157E-01 -1.563594E-05
       215 -1.041659E-06 -1.782072E+00 -4.781715E-01
       216 -3.162784E-06  2.100329E+00  7.318837E-06
       217  4.262137E-06 -1.782032E+00  4.781695E-01
       218  4.156872E-07 -1.590088E+00 -3.160416E-06
       250  4.078010E-04 -8.285888E+01 -1.826355E+00
       251 -2.778909E-01  3.759335E+01 -1.146954E-02
       252  2.748910E-03  5.518637E+01  8.604269E-04
       253  2.762588E-01  3.759257E+01 -6.263606E-03
       254 -4.405720E-04 -8.341232E+01  1.842922E+00
       255  2.242476E-06 -1.657036E+00 -4.133737E-05
       256  5.756336E-07 -3.564062E+00  9.563318E-01
       257  4.939209E-06 -3.564104E+00 -1.815821E-05
       258 -4.448655E-07  4.200662E+00  1.627675E-05
       259 -4.720996E-06 -3.564104E+00 -1.834576E-05
       260  1.153702E-06 -3.564154E+00 -9.563400E-01
       261 -3.393863E-07 -3.180180E+00 -6.376006E-06

 displacements (vx,vy,vz) for set NALL and time  0.2000000E-01

         5  0.000000E+00  0.000000E+00  0.000000E+00
         6  0.000000E+00  0.000000E+00  0.000000E+00
         7  0.000000E+00  0.000000E+00  0.000000E+00
         8  0.000000E+00  0.000000E+00  0.000000E+00
        21  0.000000E+00  0.000000E+00  0.000000E+00
        22  0.000000E+00  0.000000E+00  0.000000E+00
        23  0.000000E+00  0.000000E+00  0.000000E+00
        24  0.000000E+00  0.000000E+00  0.000000E+00
        25  0.000000E+00  0.000000E+00  0.000000E+00
        26  0.000000E+00  0.000000E+00  0.000000E+00
        27  0.000000E+00  0.000000E+00  0.000000E+00
        28  0.000000E+00  0.000000E+00  0.000000E+00
        29  0.000000E+00  0.000000E+00  0.000000E+00
        30  0.000000E+00  0.000000E+00  0.000000E+00
        31  0.000000E+00  0.000000E+00  0.000000E+00
        32  0.000000E+00  0.000000E+00  0.000000E+00
        44 -8.731965E-05  9.952967E-04 -1.436398E-04
        45 -1.838578E-05  7.717719E-04 -2.316553E-04
        46  2.390593E-05  5.594134E-04 -2.654978E-04
        47 -3.410489E-05  2.262708E-04 -1.745120E-04
        48  3.412999E-05  2.262848E-04 -1.745697E-04
        49 -2.388479E-05  5.594173E-04 -2.655768E-04
        50  1.862154E-05  7.717536E-04 -2.317077E-04
        51  8.756155E-05  9.951693E-04 -1.436853E-04
        74  9.725617E-05  9.880667E-04  1.436995E-04
        75  2.368359E-05  7.672208E-04  2.315689E-04
        76 -2.639316E-05  5.616181E-04  2.654988E-04
        77  3.262803E-05  2.275274E-04  1.745787E-04
        89 -9.699185E-05  9.881463E-04  1.436405E-04
        90 -2.349098E-05  7.672370E-04  2.315403E-04
        91  2.642717E-05  5.615842E-04  2.654059E-04
        92 -3.261464E-05  2.275130E-04  1.745275E-04
        98  0.000000E+00  0.000000E+00  0.000000E+00
        99  0.000000E+00  0.000000E+00  0.000000E+00
       100  0.000000E+00  0.000000E+00  0.000000E+00
       101  0.000000E+00  0.000000E+00  0.000000E+00
       102  0.000000E+00  0.000000E+00  0.000000E+00
       124  8.703818E-07  9.066903E-04 -1.354005E-04
       125  2.279263E-07  1.089617E-03 -1.420508E-04
       126 -5.445068E-07  9.066910E-04 -1.353072E-04
       127  5.736817E-08  7.996470E-04 -2.556890E-04
       128 -1.427035E-06  5.900800E-04 -2.848281E-04
       129  6.468882E-08  5.466718E-04 -2.899578E-04
       130  1.507487E-06  5.900901E-04 -2.848067E-04
       131  2.470935E-09  2.308493E-04 -1.696873E-04
       153  7.492786E-05  1.179269E-03 -6.373811E-05
       154  2.608104E-06  1.039957E-03  1.315669E-08
       155 -7.841939E-05  1.174615E-03  6.388068E-05
       156  3.441423E-07  8.643480E-04 -4.613973E-07
       157 -1.491663E-05  4.866878E-04 -1.142909E-04
       158 -4.120467E-07  4.978158E-04 -1.185984E-07
       159  1.581639E-05  4.879679E-04  1.144196E-04
       160 -8.376235E-08  1.895540E-04 -1.297598E-08
       182  6.519689E-06  9.088627E-04  1.353928E-04
       183  1.585128E-07  1.088170E-03  1.419788E-04
       184 -6.250945E-06  9.088536E-04  1.352926E-04
       185  5.948187E-08  8.008416E-04  2.567356E-04
       186 -2.814741E-06  5.896295E-04  2.847771E-04
       187  4.384328E-08  5.463851E-04  2.903793E-04
       188  2.880709E-06  5.896218E-04  2.847482E-04
       189  1.557542E-09  2.305398E-04  1.697034E-04
       211  7.864482E-05  1.174705E-03  6.374808E-05
       212 -2.343021E-06  1.039993E-03  1.218233E-08
       213 -7.470480E-05  1.179189E-03 -6.385952E-05
       214 -2.158946E-07  8.643311E-04 -5.457884E-07
       215 -1.574257E-05  4.879471E-04  1.143618E-04
       216  5.078969E-07  4.978202E-04 -1.926735E-07
       217  1.498239E-05  4.866984E-04 -1.143449E-04
       218  1.072477E-07  1.895494E-04 -4.200075E-08
       250  1.560197E-07  1.173868E-03 -6.341332E-05
       251  8.861768E-07  7.436275E-04  1.191217E-07