    1C
    1UUSER                                                              
    1UDATE              15.july.2018                                    
    1UTIME              20:02:59                                        
    1UHOST                                                              
    1UPGM               CalculiX                                        
    1UVERSION           Version 2.13                             
    1UCOMPILETIME       jue jun 14 00:40:39 CEST 2018                    
    1UDIR                                                               
    1UDBN                                                               
    1UMAT    1EL                                                        
    2C                            81                                     1
 -1         5 0.00000E+00 0.00000E+00 8.00000E+00
 -1         6 1.00000E+00 0.00000E+00 8.00000E+00
 -1         7 1.00000E+00 1.00000E+00 8.00000E+00
 -1         8 0.00000E+00 1.00000E+00 8.00000E+00
 -1        21 2.50000E-01 0.00000E+00 8.00000E+00
 -1        22 5.00000E-01 0.00000E+00 8.00000E+00
 -1        23 7.50000E-01 0.00000E+00 8.00000E+00
 -1        24 1.00000E+00 2.50000E-01 8.00000E+00
 -1        25 1.00000E+00 5.00000E-01 8.00000E+00
 -1        26 1.00000E+00 7.50000E-01 8.00000E+00
 -1        27 7.50000E-01 1.00000E+00 8.00000E+00
 -1        28 5.00000E-01 1.00000E+00 8.00000E+00
 -1        29 2.50000E-01 1.00000E+00 8.00000E+00
 -1        30 0.00000E+00 7.50000E-01 8.00000E+00
 -1        31 0.00000E+00 5.00000E-01 8.00000E+00
 -1        32 0.00000E+00 2.50000E-01 8.00000E+00
 -1        44 1.00000E+00 0.00000E+00 6.00000E+00
 -1        45 1.00000E+00 0.00000E+00 6.50000E+00
 -1        46 1.00000E+00 0.00000E+00 7.00000E+00
 -1        47 1.00000E+00 0.00000E+00 7.50000E+00
 -1        48 0.00000E+00 0.00000E+00 7.50000E+00
 -1        49 0.00000E+00 0.00000E+00 7.00000E+00
 -1        50 0.00000E+00 0.00000E+00 6.50000E+00
 -1        51 0.00000E+00 0.00000E+00 6.00000E+00
 -1        74 1.00000E+00 1.00000E+00 6.00000E+00
 -1        75 1.00000E+00 1.00000E+00 6.50000E+00
 -1        76 1.00000E+00 1.00000E+00 7.00000E+00
 -1        77 1.00000E+00 1.00000E+00 7.50000E+00
 -1        89 0.00000E+00 1.00000E+00 6.00000E+00
 -1        90 0.00000E+00 1.00000E+00 6.50000E+00
 -1        91 0.00000E+00 1.00000E+00 7.00000E+00
 -1        92 0.00000E+00 1.00000E+00 7.50000E+00
 -1        98 5.00000E-01 2.50000E-01 8.00000E+00
 -1        99 2.50000E-01 5.00000E-01 8.00000E+00
 -1       100 5.00000E-01 5.00000E-01 8.00000E+00
 -1       101 7.50000E-01 5.00000E-01 8.00000E+00
 -1       102 5.00000E-01 7.50000E-01 8.00000E+00
 -1       124 2.50000E-01 0.00000E+00 6.00000E+00
 -1       125 5.00000E-01 0.00000E+00 6.00000E+00
 -1       126 7.50000E-01 0.00000E+00 6.00000E+00
 -1       127 5.00000E-01 0.00000E+00 6.50000E+00
 -1       128 2.50000E-01 0.00000E+00 7.00000E+00
 -1       129 5.00000E-01 0.00000E+00 7.00000E+00
 -1       130 7.50000E-01 0.00000E+00 7.00000E+00
 -1       131 5.00000E-01 0.00000E+00 7.50000E+00
 -1       153 1.00000E+00 2.50000E-01 6.00000E+00
 -1       154 1.00000E+00 5.00000E-01 6.00000E+00
 -1       155 1.00000E+00 7.50000E-01 6.00000E+00
 -1       156 1.00000E+00 5.00000E-01 6.50000E+00
 -1       157 1.00000E+00 2.50000E-01 7.00000E+00
 -1       158 1.00000E+00 5.00000E-01 7.00000E+00
 -1       159 1.00000E+00 7.50000E-01 7.00000E+00
 -1       160 1.00000E+00 5.00000E-01 7.50000E+00
 -1       182 7.50000E-01 1.00000E+00 6.00000E+00
 -1       183 5.00000E-01 1.00000E+00 6.00000E+00
 -1       184 2.50000E-01 1.00000E+00 6.00000E+00
 -1       185 5.00000E-01 1.00000E+00 6.50000E+00
 -1       186 7.50000E-01 1.00000E+00 7.00000E+00
 -1       187 5.00000E-01 1.00000E+00 7.00000E+00
 -1       188 2.50000E-01 1.00000E+00 7.00000E+00
 -1       189 5.00000E-01 1.00000E+00 7.50000E+00
 -1       211 0.00000E+00 7.50000E-01 6.00000E+00
 -1       212 0.00000E+00 5.00000E-01 6.00000E+00
 -1       213 0.00000E+00 2.50000E-01 6.00000E+00
 -1       214 0.00000E+00 5.00000E-01 6.50000E+00
 -1       215 0.00000E+00 7.50000E-01 7.00000E+00
 -1       216 0.00000E+00 5.00000E-01 7.00000E+00
 -1       217 0.00000E+00 2.50000E-01 7.00000E+00
 -1       218 0.00000E+00 5.00000E-01 7.50000E+00
 -1       250 5.00000E-01 2.50000E-01 6.00000E+00
 -1       251 2.50000E-01 5.00000E-01 6.00000E+00
 -1       252 5.00000E-01 5.00000E-01 6.00000E+00
 -1       253 7.50000E-01 5.00000E-01 6.00000E+00
 -1       254 5.00000E-01 7.50000E-01 6.00000E+00
 -1       255 5.00000E-01 5.00000E-01 6.50000E+00
 -1       256 5.00000E-01 2.50000E-01 7.00000E+00
 -1       257 2.50000E-01 5.00000E-01 7.00000E+00
 -1       258 5.00000E-01 5.00000E-01 7.00000E+00
 -1       259 7.50000E-01 5.00000E-01 7.00000E+00
 -1       260 5.00000E-01 7.50000E-01 7.00000E+00
 -1       261 5.00000E-01 5.00000E-01 7.50000E+00
 -3
    3C                             8                                     1
 -1        25    4    0    1
 -2        51       125       252       212        49       129       258       216       124       250
 -2       251       213        50       127       255       214       128       256       257       217
 -1        26    4    0    1
 -2       125        44       154       252       129        46       158       258       126       153
 -2       253       250       127        45       156       255       130       157       259       256
 -1        27    4    0    1
 -2       212       252       183        89       216       258       187        91       251       254
 -2       184       211       214       255       185        90       257       260       188       215
 -1        28    4    0    1
 -2       252       154        74       183       258       158        76       187       253       155
 -2       182       254       255       156        75       185       259       159       186       260
 -1        29    4    0    1
 -2        49       129       258       216         5        22       100        31       128       256
 -2       257       217        48       131       261       218        21        98        99        32
 -1        30    4    0    1
 -2       129        46       158       258        22         6        25       100       130       157
 -2       259       256       131        47       160       261        23        24       101        98
 -1        31    4    0    1
 -2       216       258       187        91        31       100        28         8       257       260
 -2       188       215       218       261       189        92        99       102        29        30
 -1        32    4    0    1
 -2       258       158        76       187       100        25         7        28       259       159
 -2       186       260       261       160        77       189       101        26        27       102
 -3
    1PSTEP                         1           1           1          
  100CL  101 5.00000E-03          81                     1    1           1
 -4  DISP        4    1
 -5  D1          1    2    1    0
 -5  D2          1    2    2    0
 -5  D3          1    2    3    0
 -5  ALL         1    2    0    0    1ALL
 -1         5 0.00000E+00 0.00000E+00 0.00000E+00
 -1         6 0.00000E+00 0.00000E+00 0.00000E+00
 -1         7 0.00000E+00 0.00000E+00 0.00000E+00
 -1         8 0.00000E+00 0.00000E+00 0.00000E+00
 -1        21 0.00000E+00 0.00000E+00 0.00000E+00
 -1        22 0.00000E+00 0.00000E+00 0.00000E+00
 -1        23 0.00000E+00 0.00000E+00 0.00000E+00
 -1        24 0.00000E+00 0.00000E+00 0.00000E+00
 -1        25 0.00000E+00 0.00000E+00 0.00000E+00
 -1        26 0.00000E+00 0.00000E+00 0.00000E+00
 -1        27 0.00000E+00 0.00000E+00 0.00000E+00
 -1        28 0.00000E+00 0.00000E+00 0.00000E+00
 -1        29 0.00000E+00 0.00000E+00 0.00000E+00
 -1        30 0.00000E+00 0.00000E+00 0.00000E+00
 -1        31 0.00000E+00 0.00000E+00 0.00000E+00
 -1        32 0.00000E+00 0.00000E+00 0.00000E+00
 -1        44-6.01440E-05-3.46559E-03 4.48447E-04
 -1        45 5.68106E-05-2.56238E-03 7.85504E-04
 -1        46-4.77133E-05-1.79576E-03 9.49409E-04
 -1        47 1.31013E-04-6.75004E-04 5.43235E-04
 -1        48-1.31011E-04-6.75003E-04 5.43232E-04
 -1        49 4.77189E-05-1.79576E-03 9.49404E-04
 -1        50-5.67977E-05-2.56238E-03 7.85496E-04
 -1        51 6.01670E-05-3.46559E-03 4.48439E-04
 -1        74 3.19146E-04-4.41280E-03-4.94524E-04
 -1        75 1.91275E-04-2.97262E-03-7.84849E-04
 -1        76-1.10461E-04-1.59751E-03-9.49993E-04
 -1        77-2.07933E-04-5.26632E-04-5.58193E-04
 -1        89-3.19123E-04-4.41280E-03-4.94533E-04
 -1        90-1.91262E-04-2.97262E-03-7.84857E-04
 -1        91 1.10467E-04-1.59751E-03-9.49999E-04
 -1        92 2.07935E-04-5.26633E-04-5.58196E-04
 -1        98 0.00000E+00 0.00000E+00 0.00000E+00
 -1        99 0.00000E+00 0.00000E+00 0.00000E+00
 -1       100 0.00000E+00 0.00000E+00 0.00000E+00
 -1       101 0.00000E+00 0.00000E+00 0.00000E+00
 -1       102 0.00000E+00 0.00000E+00 0.00000E+00
 -1       124 1.49436E-04-2.96630E-03 4.29666E-04
 -1       125 1.10178E-08-3.58953E-03 4.48570E-04
 -1       126-1.49413E-04-2.96630E-03 4.29670E-04
 -1       127 6.34647E-09-2.56263E-03 9.03680E-04
 -1       128-9.10410E-06-1.95294E-03 9.48245E-04
 -1       129 2.73334E-09-1.81466E-03 9.41611E-04
 -1       130 9.10950E-06-1.95294E-03 9.48248E-04
 -1       131 5.60697E-10-7.36457E-04 5.56414E-04
 -1       153 7.01187E-05-3.63604E-03 1.91261E-04
 -1       154-1.20259E-04-2.50292E-03-2.09388E-05
 -1       155-6.53485E-05-3.88933E-03-2.37923E-04
 -1       156-1.20290E-04-2.78952E-03-6.46020E-05
 -1       157-2.05887E-05-1.50903E-03 3.92391E-04
 -1       158 8.84680E-05-1.56703E-03-2.94182E-05
 -1       159 4.68084E-05-1.47553E-03-4.11104E-04
 -1       160 3.98250E-05-6.56547E-04 4.89512E-06
 -1       182 1.14905E-04-2.56262E-03-4.71086E-04
 -1       183 1.11313E-08-4.35573E-03-4.76534E-04
 -1       184-1.14882E-04-2.56262E-03-4.71090E-04
 -1       185 6.37088E-09-2.83332E-03-8.74032E-04
 -1       186-4.41384E-05-2.16248E-03-9.82746E-04
 -1       187 2.71270E-09-1.83187E-03-9.63784E-04
 -1       188 4.41438E-05-2.16248E-03-9.82749E-04
 -1       189 5.61616E-10-7.19944E-04-5.64520E-04
 -1       211 6.53711E-05-3.88933E-03-2.37933E-04
 -1       212 1.20283E-04-2.50293E-03-2.09489E-05
 -1       213-7.00959E-05-3.63604E-03 1.91250E-04
 -1       214 1.20303E-04-2.78952E-03-6.46098E-05
 -1       215-4.68022E-05-1.47553E-03-4.11110E-04
 -1       216-8.84621E-05-1.56703E-03-2.94239E-05
 -1       217 2.05948E-05-1.50903E-03 3.92386E-04
 -1       218-3.98231E-05-6.56547E-04 4.89231E-06
 -1       250 1.11339E-08-4.08227E-03 1.74421E-04
 -1       251 3.04432E-05-2.57221E-03-1.05363E-05
 -1       252 1.09407E-08-3.12379E-03-1.58789E-05
 -1       253-3.04212E-05-2.57221E-03-1.05314E-05
 -1       254 1.11248E-08-4.41350E-03-2.54153E-04
 -1       255 6.35816E-09-2.59942E-03-3.20089E-05
 -1       256 2.90801E-09-1.60746E-03 3.95684E-04
 -1       257-4.11648E-05-1.74940E-03-1.20010E-05
 -1       258 3.01323E-09-1.79042E-03-1.45527E-05
 -1       259 4.11708E-05-1.74940E-03-1.19982E-05
 -1       260 2.90979E-09-1.62257E-03-4.18321E-04
 -1       261 7.41270E-10-7.17078E-04-1.98347E-06
 -3
    1PSTEP                         2           2           1          
  100CL  102 1.00000E-02          81                     1    2           1
 -4  DISP        4    1
 -5  D1          1    2    1    0
 -5  D2          1    2    2    0
 -5  D3          1    2    3    0
 -5  ALL         1    2    0    0    1ALL
 -1         5 0.00000E+00 0.00000E+00 0.00000E+00
 -1         6 0.00000E+00 0.00000E+00 0.00000E+00
 -1         7 0.00000E+00 0.00000E+00 0.00000E+00
 -1         8 0.00000E+00 0.00000E+00 0.00000E+00
 -1        21 0.00000E+00 0.00000E+00 0.00000E+00
 -1        22 0.00000E+00 0.00000E+00 0.00000E+00
 -1        23 0.00000E+00 0.00000E+00 0.00000E+00
 -1        24 0.00000E+00 0.00000E+00 0.00000E+00
 -1        25 0.00000E+00 0.00000E+00 0.00000E+00
 -1        26 0.00000E+00 0.00000E+00 0.00000E+00
 -1        27 0.00000E+00 0.00000E+00 0.00000E+00
 -1        28 0.00000E+00 0.00000E+00 0.00000E+00
 -1        29 0.00000E+00 0.00000E+00 0.00000E+00
 -1        30 0.00000E+00 0.00000E+00 0.00000E+00
 -1        31 0.00000E+00 0.00000E+00 0.00000E+00
 -1        32 0.00000E+00 0.00000E+00 0.00000E+00
 -1        44-1.56435E-04 1.60102E-03-2.33799E-04
 -1        45-3.76895E-05 1.24659E-03-3.76685E-04
 -1        46 4.29298E-05 9.15073E-04-4.32066E-04
 -1        47-5.32842E-05 3.70712E-04-2.84050E-04
 -1        48 5.33032E-05 3.70709E-04-2.84051E-04
 -1        49-4.28486E-05 9.15043E-04-4.32067E-04
 -1        50 3.77438E-05 1.24658E-03-3.76743E-04
 -1        51 1.56688E-04 1.60090E-03-2.33874E-04
 -1        74 1.55204E-04 1.60627E-03 2.34076E-04
 -1        75 3.64407E-05 1.24884E-03 3.76708E-04
 -1        76-4.21340E-05 9.14034E-04 4.32072E-04
 -1        77 5.36932E-05 3.69913E-04 2.84138E-04
 -1        89-1.55287E-04 1.60600E-03 2.33956E-04
 -1        90-3.63854E-05 1.24884E-03 3.76635E-04
 -1        91 4.21404E-05 9.13993E-04 4.32061E-04
 -1        92-5.36929E-05 3.69899E-04 2.84130E-04
 -1        98 0.00000E+00 0.00000E+00 0.00000E+00
 -1        99 0.00000E+00 0.00000E+00 0.00000E+00
 -1       100 0.00000E+00 0.00000E+00 0.00000E+00
 -1       101 0.00000E+00 0.00000E+00 0.00000E+00
 -1       102 0.00000E+00 0.00000E+00 0.00000E+00
 -1       124 6.15075E-06 1.48161E-03-2.20443E-04
 -1       125 5.61530E-08 1.76521E-03-2.31092E-04
 -1       126-5.96769E-06 1.48169E-03-2.20523E-04
 -1       127 7.14373E-08 1.30006E-03-4.17842E-04
 -1       128-3.74147E-06 9.58449E-04-4.63390E-04
 -1       129 8.42456E-09 8.90514E-04-4.72441E-04
 -1       130 3.78862E-06 9.58461E-04-4.63367E-04
 -1       131 1.07681E-08 3.75791E-04-2.76002E-04
 -1       153 1.26993E-04 1.91338E-03-1.03859E-04
 -1       154 7.50167E-07 1.69626E-03 1.25144E-07
 -1       155-1.27028E-04 1.91531E-03 1.04079E-04
 -1       156 7.27423E-07 1.40754E-03 3.75792E-07
 -1       157-2.53545E-05 7.93366E-04-1.86050E-04
 -1       158-4.68141E-07 8.09109E-04 1.65295E-07
 -1       159 2.52637E-05 7.93084E-04 1.86176E-04
 -1       160-2.18818E-07 3.07801E-04-2.36565E-08
 -1       182 5.77596E-06 1.47947E-03 2.20777E-04
 -1       183 2.80962E-08 1.76948E-03 2.31248E-04
 -1       184-5.78046E-06 1.47932E-03 2.20629E-04
 -1       185-8.84799E-09 1.30157E-03 4.17652E-04
 -1       186-3.49387E-06 9.59569E-04 4.63555E-04
 -1       187 2.36501E-08 8.90458E-04 4.72565E-04
 -1       188 3.51795E-06 9.59551E-04 4.63565E-04
 -1       189-1.34236E-09 3.75667E-04 2.76053E-04
 -1       211 1.26996E-04 1.91514E-03 1.04143E-04
 -1       212-7.16708E-07 1.69619E-03 5.65392E-08
 -1       213-1.26830E-04 1.91330E-03-1.03914E-04
 -1       214-6.38656E-07 1.40747E-03 3.39854E-07
 -1       215-2.52520E-05 7.93067E-04 1.86122E-04
 -1       216 4.83602E-07 8.09116E-04 1.40347E-07
 -1       217 2.54001E-05 7.93353E-04-1.86071E-04
 -1       218 2.33795E-07 3.07789E-04-3.76258E-08
 -1       250 5.78080E-08 1.91025E-03-1.02836E-04
 -1       251-4.21088E-07 1.20810E-03-3.27383E-08
 -1       252 7.44462E-08 1.54319E-03 9.82571E-08
 -1       253 5.16502E-07 1.20812E-03 5.82173E-08
 -1       254 5.79369E-08 1.91157E-03 1.03319E-04
 -1       255 2.31866E-08 1.37515E-03 1.69705E-07
 -1       256 1.87191E-08 7.83394E-04-2.07241E-04
 -1       257 2.94544E-07 9.14317E-04 6.78683E-08
 -1       258 2.53953E-08 8.12305E-04 7.19353E-08
 -1       259-2.62088E-07 9.14315E-04 6.67156E-08
 -1       260 2.27957E-08 7.83524E-04 2.07348E-04
 -1       261 3.44715E-09 3.48423E-04 1.26175E-08
 -3
    1PSTEP                         3           3           1          
  100CL  103 1.50000E-02          81                     1    3           1
 -4  DISP        4    1
 -5  D1          1    2    1    0
 -5  D2          1    2    2    0
 -5  D3          1    2    3    0
 -5  ALL         1    2    0    0    1ALL
 -1         5 0.00000E+00 0.00000E+00 0.00000E+00
 -1         6 0.00000E+00 0.00000E+00 0.00000E+00
 -1         7 0.00000E+00 0.00000E+00 0.00000E+00
 -1         8 0.00000E+00 0.00000E+00 0.00000E+00
 -1        21 0.00000E+00 0.00000E+00 0.00000E+00
 -1        22 0.00000E+00 0.00000E+00 0.00000E+00
 -1        23 0.00000E+00 0.00000E+00 0.00000E+00
 -1        24 0.00000E+00 0.00000E+00 0.00000E+00
 -1        25 0.00000E+00 0.00000E+00 0.00000E+00
 -1        26 0.00000E+00 0.00000E+00 0.00000E+00
 -1        27 0.00000E+00 0.00000E+00 0.00000E+00
 -1        28 0.00000E+00 0.00000E+00 0.00000E+00
 -1        29 0.00000E+00 0.00000E+00 0.00000E+00
 -1        30 0.00000E+00 0.00000E+00 0.00000E+00
 -1        31 0.00000E+00 0.00000E+00 0.00000E+00
 -1        32 0.00000E+00 0.00000E+00 0.00000E+00
 -1        44 1.25352E-04-1.26655E-03 1.85244E-04
 -1        45 2.94777E-05-9.87942E-04 2.97774E-04
 -1        46-3.36771E-05-7.24229E-04 3.41850E-04
 -1        47 4.23400E-05-2.93701E-04 2.25121E-04
 -1        48-4.23495E-05-2.93694E-04 2.25089E-04
 -1        49 3.36037E-05-7.24210E-04 3.41826E-04
 -1        50-2.93764E-05-9.88004E-04 2.97856E-04
 -1        51-1.25210E-04-1.26685E-03 1.85288E-04
 -1        74-1.30596E-04-1.26108E-03-1.85247E-04
 -1        75-3.25900E-05-9.84817E-04-2.97815E-04
 -1        76 3.57427E-05-7.26335E-04-3.41865E-04
 -1        77-4.14147E-05-2.94648E-04-2.25110E-04
 -1        89 1.30702E-04-1.26081E-03-1.85205E-04
 -1        90 3.26766E-05-9.84755E-04-2.97741E-04
 -1        91-3.58218E-05-7.26363E-04-3.41866E-04
 -1        92 4.14035E-05-2.94660E-04-2.25133E-04
 -1        98 0.00000E+00 0.00000E+00 0.00000E+00
 -1        99 0.00000E+00 0.00000E+00 0.00000E+00
 -1       100 0.00000E+00 0.00000E+00 0.00000E+00
 -1       101 0.00000E+00 0.00000E+00 0.00000E+00
 -1       102 0.00000E+00 0.00000E+00 0.00000E+00
 -1       124-6.23238E-06-1.17327E-03 1.74643E-04
 -1       125 1.42568E-07-1.39854E-03 1.83034E-04
 -1       126 6.38729E-06-1.17324E-03 1.74694E-04
 -1       127-2.07296E-08-1.02922E-03 3.30764E-04
 -1       128 3.02859E-06-7.59151E-04 3.66966E-04
 -1       129 2.93990E-08-7.05886E-04 3.74192E-04
 -1       130-3.02007E-06-7.59136E-04 3.66959E-04
 -1       131-1.07651E-08-2.97917E-04 2.18602E-04
 -1       153-1.01776E-04-1.51374E-03 8.23892E-05
 -1       154-9.87535E-07-1.34752E-03-1.02308E-07
 -1       155 1.03658E-04-1.51463E-03-8.24072E-05
 -1       156 1.71195E-07-1.11601E-03 3.41053E-07
 -1       157 2.03547E-05-6.28614E-04 1.47329E-04
 -1       158-1.12022E-07-6.40315E-04 1.36104E-07
 -1       159-2.07780E-05-6.28774E-04-1.47379E-04
 -1       160-2.27154E-08-2.43413E-04 1.54537E-08
 -1       182-5.29126E-06-1.17524E-03-1.74616E-04
 -1       183 1.28624E-07-1.39622E-03-1.82927E-04
 -1       184 5.41473E-06-1.17522E-03-1.74628E-04
 -1       185-2.13147E-08-1.02945E-03-3.31518E-04
 -1       186 3.19104E-06-7.58704E-04-3.66942E-04
 -1       187 2.62287E-08-7.05821E-04-3.74465E-04
 -1       188-3.18850E-06-7.58692E-04-3.66932E-04
 -1       189-1.23146E-08-2.97943E-04-2.18659E-04
 -1       211-1.03691E-04-1.51441E-03-8.23994E-05
 -1       212 9.91787E-07-1.34753E-03 7.43801E-08
 -1       213 1.01764E-04-1.51398E-03 8.23236E-05
 -1       214-2.45004E-07-1.11602E-03 3.41726E-07
 -1       215 2.07754E-05-6.28805E-04-1.47363E-04
 -1       216 1.51584E-07-6.40315E-04 1.22404E-07
 -1       217-2.03544E-05-6.28587E-04 1.47349E-04
 -1       218 1.50087E-08-2.43415E-04 3.03872E-08
 -1       250-5.41671E-09-1.51519E-03 8.16013E-05
 -1       251 1.19440E-06-9.55525E-04-8.72103E-10
 -1       252-1.92086E-07-1.22397E-03-2.52601E-08
 -1       253-1.35489E-06-9.55522E-04-1.63403E-07
 -1       254-1.23982E-08-1.51260E-03-8.14586E-05
 -1       255 6.18244E-09-1.08967E-03 9.77302E-10
 -1       256-7.89075E-09-6.20391E-04 1.64179E-04
 -1       257-1.34370E-07-7.24802E-04-2.25734E-08
 -1       258-3.61973E-08-6.43154E-04-8.36881E-09
 -1       259 1.08017E-07-7.24801E-04 2.95022E-09
 -1       260-9.15146E-09-6.20698E-04-1.64189E-04
 -1       261 1.11649E-08-2.75921E-04 2.54661E-09
 -3
    1PSTEP                         4           4           1          
  100CL  104 2.00000E-02          81                     1    4           1
 -4  DISP        4    1
 -5  D1          1    2    1    0
 -5  D2          1    2    2    0
 -5  D3          1    2    3    0
 -5  ALL         1    2    0    0    1ALL
 -1         5 0.00000E+00 0.00000E+00 0.00000E+00
 -1         6 0.00000E+00 0.00000E+00 0.00000E+00
 -1         7 0.00000E+00 0.00000E+00 0.00000E+00
 -1         8 0.00000E+00 0.00000E+00 0.00000E+00
 -1        21 0.00000E+00 0.00000E+00 0.00000E+00
 -1        22 0.00000E+00 0.00000E+00 0.00000E+00
 -1        23 0.00000E+00 0.00000E+00 0.00000E+00
 -1        24 0.00000E+00 0.00000E+00 0.00000E+00
 -1        25 0.00000E+00 0.00000E+00 0.00000E+00
 -1        26 0.00000E+00 0.00000E+00 0.00000E+00
 -1        27 0.00000E+00 0.00000E+00 0.00000E+00
 -1        28 0.00000E+00 0.00000E+00 0.00000E+00
 -1        29 0.00000E+00 0.00000E+00 0.00000E+00
 -1        30 0.00000E+00 0.00000E+00 0.00000E+00
 -1        31 0.00000E+00 0.00000E+00 0.00000E+00
 -1        32 0.00000E+00 0.00000E+00 0.00000E+00
 -1        44-9.63751E-05 9.85552E-04-1.43909E-04
 -1        45-2.24705E-05 7.67188E-04-2.31649E-04
 -1        46 2.59512E-05 5.62273E-04-2.65395E-04
 -1        47-3.29174E-05 2.27898E-04-1.74757E-04
 -1        48 3.29110E-05 2.27893E-04-1.74733E-04
 -1        49-2.59605E-05 5.62295E-04-2.65370E-04
 -1        50 2.23799E-05 7.67198E-04-2.31647E-04
 -1        51 9.61055E-05 9.85845E-04-1.43900E-04
 -1        74 9.81640E-05 9.82687E-04 1.43846E-04
 -1        75 2.37042E-05 7.65680E-04 2.31622E-04
 -1        76-2.69460E-05 5.63416E-04 2.65478E-04
 -1        77 3.25350E-05 2.28373E-04 1.74769E-04
 -1        89-9.81553E-05 9.82687E-04 1.43868E-04
 -1        90-2.37963E-05 7.65636E-04 2.31630E-04
 -1        91 2.69807E-05 5.63452E-04 2.65473E-04
 -1        92-3.25331E-05 2.28388E-04 1.74779E-04
 -1        98 0.00000E+00 0.00000E+00 0.00000E+00
 -1        99 0.00000E+00 0.00000E+00 0.00000E+00
 -1       100 0.00000E+00 0.00000E+00 0.00000E+00
 -1       101 0.00000E+00 0.00000E+00 0.00000E+00
 -1       102 0.00000E+00 0.00000E+00 0.00000E+00
 -1       124 4.53889E-06 9.10417E-04-1.35612E-04
 -1       125-1.26455E-07 1.08654E-03-1.42300E-04
 -1       126-4.76749E-06 9.10316E-04-1.35593E-04
 -1       127-3.48298E-08 7.99968E-04-2.56505E-04
 -1       128-2.37022E-06 5.89462E-04-2.84896E-04
 -1       129-1.80455E-08 5.47210E-04-2.90462E-04
 -1       130 2.34026E-06 5.89441E-04-2.84911E-04
 -1       131-3.75429E-10 2.31006E-04-1.69677E-04
 -1       153 7.86301E-05 1.17742E-03-6.39741E-05
 -1       154 7.81975E-08 1.04577E-03-1.46944E-08
 -1       155-7.92356E-05 1.17853E-03 6.40481E-05
 -1       156-2.79285E-07 8.65346E-04-1.70848E-07
 -1       157-1.57592E-05 4.88104E-04-1.14317E-04
 -1       158 1.96828E-07 4.97923E-04-7.68291E-08
 -1       159 1.58689E-05 4.88055E-04 1.14312E-04
 -1       160 5.19729E-08 1.89198E-04-8.29060E-09
 -1       182 3.05806E-06 9.11525E-04 1.35635E-04
 -1       183-8.59738E-08 1.08481E-03 1.42224E-04
 -1       184-3.11761E-06 9.11597E-04 1.35689E-04
 -1       185 5.28136E-09 7.99742E-04 2.56848E-04
 -1       186-2.25479E-06 5.89170E-04 2.84896E-04
 -1       187-3.02696E-08 5.47303E-04 2.90573E-04
 -1       188 2.23569E-06 5.89174E-04 2.84883E-04
 -1       189 6.01454E-09 2.31119E-04 1.69720E-04
 -1       211 7.92687E-05 1.17849E-03 6.39569E-05
 -1       212-1.39925E-07 1.04578E-03-1.61161E-08
 -1       213-7.87705E-05 1.17760E-03-6.38428E-05
 -1       214 2.58830E-07 8.65411E-04-1.37578E-07
 -1       215-1.58819E-05 4.88072E-04 1.14343E-04
 -1       216-2.35513E-07 4.97901E-04-5.19518E-08
 -1       217 1.57288E-05 4.88095E-04-1.14317E-04
 -1       218-5.70051E-08 1.89206E-04-5.68698E-09
 -1       250-4.14555E-08 1.17429E-03-6.34738E-05
 -1       251-8.85467E-07 7.42619E-04 8.56944E-09
 -1       252 5.29803E-08 9.48536E-04 7.70691E-08
 -1       253 8.91543E-07 7.42625E-04 1.49560E-08
 -1       254-2.95441E-08 1.17197E-03 6.33609E-05
 -1       255-2.17424E-08 8.46158E-04 1.43852E-08
 -1       256-6.68619E-09 4.81434E-04-1.27505E-04
 -1       257 7.82755E-08 5.62445E-04 2.18469E-08
 -1       258 2.38134E-09 4.98906E-04-3.50487E-09
 -1       259-8.98178E-08 5.62453E-04 7.47447E-09
 -1       260-1.11853E-08 4.81814E-04 1.27532E-04
 -1       261-8.35957E-09 2.14184E-04-1.45949E-08
 -3
    1PSTEP                         5           5           1          
  100CL  105 2.50000E-02          81                     1    5           1
 -4  DISP        4    1
 -5  D1          1    2    1    0
 -5  D2          1    2    2    0
 -5  D3          1    2    3    0
 -5  ALL         1    2    0    0    1ALL
 -1         5 0.00000E+00 0.00000E+00 0.00000E+00
 -1         6 0.00000E+00 0.00000E+00 0.00000E+00
 -1         7 0.00000E+00 0.00000E+00 0.00000E+00
 -1         8 0.00000E+00 0.00000E+00 0.00000E+00
 -1        21 0.00000E+00 0.00000E+00 0.00000E+00
 -1        22 0.00000E+00 0.00000E+00 0.00000E+00
 -1        23 0.00000E+00 0.00000E+00 0.00000E+00
 -1        24 0.00000E+00 0.00000E+00 0.00000E+00
 -1        25 0.00000E+00 0.00000E+00 0.00000E+00
 -1        26 0.00000E+00 0.00000E+00 0.00000E+00
 -1        27 0.00000E+00 0.00000E+00 0.00000E+00
 -1        28 0.00000E+00 0.00000E+00 0.00000E+00
 -1        29 0.00000E+00 0.00000E+00 0.00000E+00
 -1        30 0.00000E+00 0.00000E+00 0.00000E+00
 -1        31 0.00000E+00 0.00000E+00 0.00000E+00
 -1        32 0.00000E+00 0.00000E+00 0.00000E+00
 -1        44 7.52264E-05-7.39133E-04 1.08444E-04
 -1        45 1.87740E-05-5.76930E-04 1.74570E-04
 -1        46-2.04551E-05-4.25168E-04 2.00335E-04
 -1        47 2.43586E-05-1.72551E-04 1.31820E-04
 -1        48-2.43667E-05-1.72554E-04 1.31828E-04
 -1        49 2.04172E-05-4.25164E-04 2.00357E-04
 -1        50-1.88131E-05-5.76952E-04 1.74622E-04
 -1        51-7.53294E-05-7.39153E-04 1.08498E-04
 -1        74-7.19857E-05-7.43831E-04-1.08511E-04
 -1        75-1.67125E-05-5.79331E-04-1.74545E-04
 -1        76 1.96811E-05-4.24256E-04-2.00296E-04
 -1        77-2.49206E-05-1.71864E-04-1.31825E-04
 -1        89 7.18575E-05-7.43828E-04-1.08462E-04
 -1        90 1.66784E-05-5.79317E-04-1.74501E-04
 -1        91-1.97294E-05-4.24258E-04-2.00273E-04
 -1        92 2.49123E-05-1.71863E-04-1.31820E-04
 -1        98 0.00000E+00 0.00000E+00 0.00000E+00
 -1        99 0.00000E+00 0.00000E+00 0.00000E+00
 -1       100 0.00000E+00 0.00000E+00 0.00000E+00
 -1       101 0.00000E+00 0.00000E+00 0.00000E+00
 -1       102 0.00000E+00 0.00000E+00 0.00000E+00
 -1       124-5.35350E-06-6.88385E-04 1.02237E-04
 -1       125-3.25793E-08-8.17222E-04 1.07216E-04
 -1       126 5.26394E-06-6.88390E-04 1.02229E-04
 -1       127-3.10430E-08-6.02646E-04 1.94017E-04
 -1       128 2.25822E-06-4.44509E-04 2.14927E-04
 -1       129-6.92439E-09-4.13848E-04 2.19242E-04
 -1       130-2.28167E-06-4.44508E-04 2.14910E-04
 -1       131-3.97339E-09-1.74601E-04 1.28097E-04
 -1       153-5.98544E-05-8.84442E-04 4.82019E-05
 -1       154 1.87775E-07-7.87739E-04-3.84469E-08
 -1       155 5.87473E-05-8.89140E-04-4.82329E-05
 -1       156-3.10253E-07-6.53295E-04-2.56712E-07
 -1       157 1.19103E-05-3.68786E-04 8.63333E-05
 -1       158-2.78967E-08-3.75303E-04-1.03864E-07
 -1       159-1.17461E-05-3.67814E-04-8.63271E-05
 -1       160 8.22762E-08-1.42785E-04-9.51016E-10
 -1       182-1.23958E-06-6.86590E-04-1.02194E-04
 -1       183-1.91853E-08-8.19500E-04-1.07130E-04
 -1       184 1.15016E-06-6.86610E-04-1.02206E-04
 -1       185-3.99436E-08-6.03000E-04-1.93530E-04
 -1       186 1.35017E-06-4.44893E-04-2.14952E-04
 -1       187-2.84758E-09-4.13191E-04-2.19097E-04
 -1       188-1.37468E-06-4.44890E-04-2.14933E-04
 -1       189-5.37514E-09-1.74515E-04-1.28083E-04
 -1       211-5.88600E-05-8.89135E-04-4.81885E-05
 -1       212-2.61854E-07-7.87762E-04 1.65247E-08
 -1       213 5.97519E-05-8.84476E-04 4.82463E-05
 -1       214 2.31179E-07-6.53295E-04-2.24210E-07
 -1       215 1.17158E-05-3.67820E-04-8.63017E-05
 -1       216 1.31103E-08-3.75307E-04-7.89644E-08
 -1       217-1.19348E-05-3.68784E-04 8.63593E-05
 -1       218-9.34982E-08-1.42785E-04 1.68288E-08
 -1       250-5.52591E-08-8.87714E-04 4.77296E-05
 -1       251 1.61788E-06-5.60024E-04 7.25139E-08
 -1       252-8.24030E-08-7.16233E-04 2.84222E-08
 -1       253-1.73422E-06-5.60012E-04 1.71977E-08
 -1       254-4.63074E-08-8.85055E-04-4.77853E-05
 -1       255-2.50176E-08-6.38079E-04-4.74155E-09
 -1       256-1.53690E-08-3.63351E-04 9.61275E-05
 -1       257-3.97319E-07-4.24417E-04 1.37652E-08
 -1       258-2.20782E-08-3.76916E-04 2.88447E-09
 -1       259 3.67106E-07-4.24415E-04 8.14139E-09
 -1       260-1.37880E-08-3.63860E-04-9.61224E-05
 -1       261-1.01819E-09-1.61704E-04-9.91699E-09
 -3
    1PSTEP                         6           6           1          
  100CL  106 3.00000E-02          81                     1    6           1
 -4  DISP        4    1
 -5  D1          1    2    1    0
 -5  D2          1    2    2    0
 -5  D3          1    2    3    0
 -5  ALL         1    2    0    0    1ALL
 -1         5 0.00000E+00 0.00000E+00 0.00000E+00
 -1         6 0.00000E+00 0.00000E+00 0.00000E+00
 -1         7 0.00000E+00 0.00000E+00 0.00000E+00
 -1         8 0.00000E+00 0.00000E+00 0.00000E+00
 -1        21 0.00000E+00 0.00000E+00 0.00000E+00
 -1        22 0.00000E+00 0.00000E+00 0.00000E+00
 -1        23 0.00000E+00 0.00000E+00 0.00000E+00
 -1        24 0.00000E+00 0.00000E+00 0.00000E+00
 -1        25 0.00000E+00 0.00000E+00 0.00000E+00
 -1        26 0.00000E+00 0.00000E+00 0.00000E+00
 -1        27 0.00000E+00 0.00000E+00 0.00000E+00
 -1        28 0.00000E+00 0.00000E+00 0.00000E+00
 -1        29 0.00000E+00 0.00000E+00 0.00000E+00
 -1        30 0.00000E+00 0.00000E+00 0.00000E+00
 -1        31 0.00000E+00 0.00000E+00 0.00000E+00
 -1        32 0.00000E+00 0.00000E+00 0.00000E+00
 -1        44-5.39112E-05 5.37588E-04-7.86933E-05
 -1        45-1.30951E-05 4.18847E-04-1.26850E-04
 -1        46 1.48648E-05 3.08580E-04-1.45278E-04
 -1        47-1.77585E-05 1.25065E-04-9.56332E-05