    1C
    1UUSER                                                              
    1UDATE              17.july.2018                                    
    1UTIME              01:55:37                                        
    1UHOST                                                              
    1UPGM               CalculiX                                        
    1UVERSION           Version 2.13                             
    1UCOMPILETIME       jue jun 14 00:40:39 CEST 2018                    
    1UDIR                                                               
    1UDBN                                                               
    1UMAT    1EL                                                        
    2C                            81                                     1
 -1         5 0.00000E+00 0.00000E+00 8.00000E+00
 -1         6 1.00000E+00 0.00000E+00 8.00000E+00
 -1         7 1.00000E+00 1.00000E+00 8.00000E+00
 -1         8 0.00000E+00 1.00000E+00 8.00000E+00
 -1        21 2.50000E-01 0.00000E+00 8.00000E+00
 -1        22 5.00000E-01 0.00000E+00 8.00000E+00
 -1        23 7.50000E-01 0.00000E+00 8.00000E+00
 -1        24 1.00000E+00 2.50000E-01 8.00000E+00
 -1        25 1.00000E+00 5.00000E-01 8.00000E+00
 -1        26 1.00000E+00 7.50000E-01 8.00000E+00
 -1        27 7.50000E-01 1.00000E+00 8.00000E+00
 -1        28 5.00000E-01 1.00000E+00 8.00000E+00
 -1        29 2.50000E-01 1.00000E+00 8.00000E+00
 -1        30 0.00000E+00 7.50000E-01 8.00000E+00
 -1        31 0.00000E+00 5.00000E-01 8.00000E+00
 -1        32 0.00000E+00 2.50000E-01 8.00000E+00
 -1        44 1.00000E+00 0.00000E+00 6.00000E+00
 -1        45 1.00000E+00 0.00000E+00 6.50000E+00
 -1        46 1.00000E+00 0.00000E+00 7.00000E+00
 -1        47 1.00000E+00 0.00000E+00 7.50000E+00
 -1        48 0.00000E+00 0.00000E+00 7.50000E+00
 -1        49 0.00000E+00 0.00000E+00 7.00000E+00
 -1        50 0.00000E+00 0.00000E+00 6.50000E+00
 -1        51 0.00000E+00 0.00000E+00 6.00000E+00
 -1        74 1.00000E+00 1.00000E+00 6.00000E+00
 -1        75 1.00000E+00 1.00000E+00 6.50000E+00
 -1        76 1.00000E+00 1.00000E+00 7.00000E+00
 -1        77 1.00000E+00 1.00000E+00 7.50000E+00
 -1        89 0.00000E+00 1.00000E+00 6.00000E+00
 -1        90 0.00000E+00 1.00000E+00 6.50000E+00
 -1        91 0.00000E+00 1.00000E+00 7.00000E+00
 -1        92 0.00000E+00 1.00000E+00 7.50000E+00
 -1        98 5.00000E-01 2.50000E-01 8.00000E+00
 -1        99 2.50000E-01 5.00000E-01 8.00000E+00
 -1       100 5.00000E-01 5.00000E-01 8.00000E+00
 -1       101 7.50000E-01 5.00000E-01 8.00000E+00
 -1       102 5.00000E-01 7.50000E-01 8.00000E+00
 -1       124 2.50000E-01 0.00000E+00 6.00000E+00
 -1       125 5.00000E-01 0.00000E+00 6.00000E+00
 -1       126 7.50000E-01 0.00000E+00 6.00000E+00
 -1       127 5.00000E-01 0.00000E+00 6.50000E+00
 -1       128 2.50000E-01 0.00000E+00 7.00000E+00
 -1       129 5.00000E-01 0.00000E+00 7.00000E+00
 -1       130 7.50000E-01 0.00000E+00 7.00000E+00
 -1       131 5.00000E-01 0.00000E+00 7.50000E+00
 -1       153 1.00000E+00 2.50000E-01 6.00000E+00
 -1       154 1.00000E+00 5.00000E-01 6.00000E+00
 -1       155 1.00000E+00 7.50000E-01 6.00000E+00
 -1       156 1.00000E+00 5.00000E-01 6.50000E+00
 -1       157 1.00000E+00 2.50000E-01 7.00000E+00
 -1       158 1.00000E+00 5.00000E-01 7.00000E+00
 -1       159 1.00000E+00 7.50000E-01 7.00000E+00
 -1       160 1.00000E+00 5.00000E-01 7.50000E+00
 -1       182 7.50000E-01 1.00000E+00 6.00000E+00
 -1       183 5.00000E-01 1.00000E+00 6.00000E+00
 -1       184 2.50000E-01 1.00000E+00 6.00000E+00
 -1       185 5.00000E-01 1.00000E+00 6.50000E+00
 -1       186 7.50000E-01 1.00000E+00 7.00000E+00
 -1       187 5.00000E-01 1.00000E+00 7.00000E+00
 -1       188 2.50000E-01 1.00000E+00 7.00000E+00
 -1       189 5.00000E-01 1.00000E+00 7.50000E+00
 -1       211 0.00000E+00 7.50000E-01 6.00000E+00
 -1       212 0.00000E+00 5.00000E-01 6.00000E+00
 -1       213 0.00000E+00 2.50000E-01 6.00000E+00
 -1       214 0.00000E+00 5.00000E-01 6.50000E+00
 -1       215 0.00000E+00 7.50000E-01 7.00000E+00
 -1       216 0.00000E+00 5.00000E-01 7.00000E+00
 -1       217 0.00000E+00 2.50000E-01 7.00000E+00
 -1       218 0.00000E+00 5.00000E-01 7.50000E+00
 -1       250 5.00000E-01 2.50000E-01 6.00000E+00
 -1       251 2.50000E-01 5.00000E-01 6.00000E+00
 -1       252 5.00000E-01 5.00000E-01 6.00000E+00
 -1       253 7.50000E-01 5.00000E-01 6.00000E+00
 -1       254 5.00000E-01 7.50000E-01 6.00000E+00
 -1       255 5.00000E-01 5.00000E-01 6.50000E+00
 -1       256 5.00000E-01 2.50000E-01 7.00000E+00
 -1       257 2.50000E-01 5.00000E-01 7.00000E+00
 -1       258 5.00000E-01 5.00000E-01 7.00000E+00
 -1       259 7.50000E-01 5.00000E-01 7.00000E+00
 -1       260 5.00000E-01 7.50000E-01 7.00000E+00
 -1       261 5.00000E-01 5.00000E-01 7.50000E+00
 -3
    3C                             8                                     1
 -1        25    4    0    1
 -2        51       125       252       212        49       129       258       216       124       250
 -2       251       213        50       127       255       214       128       256       257       217
 -1        26    4    0    1
 -2       125        44       154       252       129        46       158       258       126       153
 -2       253       250       127        45       156       255       130       157       259       256
 -1        27    4    0    1
 -2       212       252       183        89       216       258       187        91       251       254
 -2       184       211       214       255       185        90       257       260       188       215
 -1        28    4    0    1
 -2       252       154        74       183       258       158        76       187       253       155
 -2       182       254       255       156        75       185       259       159       186       260
 -1        29    4    0    1
 -2        49       129       258       216         5        22       100        31       128       256
 -2       257       217        48       131       261       218        21        98        99        32
 -1        30    4    0    1
 -2       129        46       158       258        22         6        25       100       130       157
 -2       259       256       131        47       160       261        23        24       101        98
 -1        31    4    0    1
 -2       216       258       187        91        31       100        28         8       257       260
 -2       188       215       218       261       189        92        99       102        29        30
 -1        32    4    0    1
 -2       258       158        76       187       100        25         7        28       259       159
 -2       186       260       261       160        77       189       101        26        27       102
 -3
    1PSTEP                         1           1           1          
  100CL  101 5.00000E-03          81                     1    1           1
 -4  DISP        4    1
 -5  D1          1    2    1    0
 -5  D2          1    2    2    0
 -5  D3          1    2    3    0
 -5  ALL         1    2    0    0    1ALL
 -1         5 0.00000E+00 0.00000E+00 0.00000E+00
 -1         6 0.00000E+00 0.00000E+00 0.00000E+00
 -1         7 0.00000E+00 0.00000E+00 0.00000E+00
 -1         8 0.00000E+00 0.00000E+00 0.00000E+00
 -1        21 0.00000E+00 0.00000E+00 0.00000E+00
 -1        22 0.00000E+00 0.00000E+00 0.00000E+00
 -1        23 0.00000E+00 0.00000E+00 0.00000E+00
 -1        24 0.00000E+00 0.00000E+00 0.00000E+00
 -1        25 0.00000E+00 0.00000E+00 0.00000E+00
 -1        26 0.00000E+00 0.00000E+00 0.00000E+00
 -1        27 0.00000E+00 0.00000E+00 0.00000E+00
 -1        28 0.00000E+00 0.00000E+00 0.00000E+00
 -1        29 0.00000E+00 0.00000E+00 0.00000E+00
 -1        30 0.00000E+00 0.00000E+00 0.00000E+00
 -1        31 0.00000E+00 0.00000E+00 0.00000E+00
 -1        32 0.00000E+00 0.00000E+00 0.00000E+00
 -1        44-5.91069E-05-3.46316E-03 4.48043E-04
 -1        45 5.68936E-05-2.56108E-03 7.84678E-04
 -1        46-4.79645E-05-1.79610E-03 9.49091E-04
 -1        47 1.30868E-04-6.75163E-04 5.43240E-04
 -1        48-1.30866E-04-6.75161E-04 5.43235E-04
 -1        49 4.79808E-05-1.79610E-03 9.49078E-04
 -1        50-5.68672E-05-2.56108E-03 7.84651E-04
 -1        51 5.91901E-05-3.46314E-03 4.47990E-04
 -1        74 3.16377E-04-4.40683E-03-4.94443E-04
 -1        75 1.89703E-04-2.96951E-03-7.84659E-04
 -1        76-1.09374E-04-1.59877E-03-9.49504E-04
 -1        77-2.07452E-04-5.27345E-04-5.58068E-04
 -1        89-3.16290E-04-4.40685E-03-4.94502E-04
 -1        90-1.89676E-04-2.96951E-03-7.84687E-04
 -1        91 1.09391E-04-1.59878E-03-9.49517E-04
 -1        92 2.07454E-04-5.27347E-04-5.58073E-04
 -1        98 0.00000E+00 0.00000E+00 0.00000E+00
 -1        99 0.00000E+00 0.00000E+00 0.00000E+00
 -1       100 0.00000E+00 0.00000E+00 0.00000E+00
 -1       101 0.00000E+00 0.00000E+00 0.00000E+00
 -1       102 0.00000E+00 0.00000E+00 0.00000E+00
 -1       124 1.50435E-04-2.96552E-03 4.29425E-04
 -1       125 2.61916E-08-3.58845E-03 4.47918E-04
 -1       126-1.50369E-04-2.96553E-03 4.29439E-04
 -1       127 1.87514E-08-2.56248E-03 9.03268E-04
 -1       128-9.31743E-06-1.95242E-03 9.47863E-04
 -1       129 2.88522E-09-1.81384E-03 9.41234E-04
 -1       130 9.32822E-06-1.95243E-03 9.47872E-04
 -1       131 6.69764E-10-7.36336E-04 5.56225E-04
 -1       153 6.92524E-05-3.63613E-03 1.91241E-04
 -1       154-1.20150E-04-2.50332E-03-2.13112E-05
 -1       155-6.41377E-05-3.88810E-03-2.37626E-04
 -1       156-1.19828E-04-2.78900E-03-6.45089E-05
 -1       157-2.04804E-05-1.50886E-03 3.92151E-04
 -1       158 8.82222E-05-1.56687E-03-2.93009E-05
 -1       159 4.66647E-05-1.47570E-03-4.10923E-04
 -1       160 3.97038E-05-6.56443E-04 4.91517E-06
 -1       182 1.15099E-04-2.56363E-03-4.70746E-04
 -1       183 2.70542E-08-4.35255E-03-4.76782E-04
 -1       184-1.15031E-04-2.56364E-03-4.70763E-04
 -1       185 1.85427E-08-2.83261E-03-8.74104E-04
 -1       186-4.39902E-05-2.16164E-03-9.82454E-04
 -1       187 2.94261E-09-1.83164E-03-9.63600E-04
 -1       188 4.40012E-05-2.16165E-03-9.82463E-04
 -1       189 6.71537E-10-7.19994E-04-5.64390E-04
 -1       211 6.42364E-05-3.88811E-03-2.37678E-04
 -1       212 1.20258E-04-2.50332E-03-2.13696E-05
 -1       213-6.91552E-05-3.63613E-03 1.91191E-04
 -1       214 1.19850E-04-2.78900E-03-6.45387E-05
 -1       215-4.66451E-05-1.47570E-03-4.10937E-04
 -1       216-8.82000E-05-1.56687E-03-2.93137E-05
 -1       217 2.04999E-05-1.50886E-03 3.92136E-04
 -1       218-3.97014E-05-6.56443E-04 4.91279E-06
 -1       250 2.45940E-08-4.07913E-03 1.73956E-04
 -1       251 3.02419E-05-2.57124E-03-1.06729E-05
 -1       252 2.30976E-08-3.12324E-03-1.56741E-05
 -1       253-3.01680E-05-2.57124E-03-1.06700E-05
 -1       254 2.51505E-08-4.41045E-03-2.54558E-04
 -1       255 2.17206E-08-2.59904E-03-3.18471E-05
 -1       256 2.10533E-09-1.60734E-03 3.95635E-04
 -1       257-4.10030E-05-1.74925E-03-1.20258E-05
 -1       258 9.59970E-10-1.78989E-03-1.46185E-05
 -1       259 4.10150E-05-1.74925E-03-1.20135E-05
 -1       260 2.09017E-09-1.62249E-03-4.18212E-04
 -1       261 1.78094E-09-7.16910E-04-2.01727E-06
 -3
    1PSTEP                         2           2           1          
  100CL  102 1.00000E-02          81                     1    2           1
 -4  DISP        4    1
 -5  D1          1    2    1    0
 -5  D2          1    2    2    0
 -5  D3          1    2    3    0
 -5  ALL         1    2    0    0    1ALL
 -1         5 0.00000E+00 0.00000E+00 0.00000E+00
 -1         6 0.00000E+00 0.00000E+00 0.00000E+00
 -1         7 0.00000E+00 0.00000E+00 0.00000E+00
 -1         8 0.00000E+00 0.00000E+00 0.00000E+00
 -1        21 0.00000E+00 0.00000E+00 0.00000E+00
 -1        22 0.00000E+00 0.00000E+00 0.00000E+00
 -1        23 0.00000E+00 0.00000E+00 0.00000E+00
 -1        24 0.00000E+00 0.00000E+00 0.00000E+00
 -1        25 0.00000E+00 0.00000E+00 0.00000E+00
 -1        26 0.00000E+00 0.00000E+00 0.00000E+00
 -1        27 0.00000E+00 0.00000E+00 0.00000E+00
 -1        28 0.00000E+00 0.00000E+00 0.00000E+00
 -1        29 0.00000E+00 0.00000E+00 0.00000E+00
 -1        30 0.00000E+00 0.00000E+00 0.00000E+00
 -1        31 0.00000E+00 0.00000E+00 0.00000E+00
 -1        32 0.00000E+00 0.00000E+00 0.00000E+00
 -1        44-1.51969E-04 1.60721E-03-2.33972E-04
 -1        45-3.55009E-05 1.24857E-03-3.77090E-04
 -1        46 4.17916E-05 9.14259E-04-4.32127E-04
 -1        47-5.38761E-05 3.69967E-04-2.83967E-04
 -1        48 5.38762E-05 3.69968E-04-2.83978E-04
 -1        49-4.18069E-05 9.14256E-04-4.32136E-04
 -1        50 3.55296E-05 1.24856E-03-3.77076E-04
 -1        51 1.52020E-04 1.60712E-03-2.33963E-04
 -1        74 1.51977E-04 1.60858E-03 2.34003E-04
 -1        75 3.54663E-05 1.24903E-03 3.76949E-04
 -1        76-4.15784E-05 9.14127E-04 4.32399E-04
 -1        77 5.39539E-05 3.69709E-04 2.84117E-04
 -1        89-1.51982E-04 1.60858E-03 2.34005E-04
 -1        90-3.54411E-05 1.24905E-03 3.76970E-04
 -1        91 4.15588E-05 9.14108E-04 4.32389E-04
 -1        92-5.39574E-05 3.69708E-04 2.84110E-04
 -1        98 0.00000E+00 0.00000E+00 0.00000E+00
 -1        99 0.00000E+00 0.00000E+00 0.00000E+00
 -1       100 0.00000E+00 0.00000E+00 0.00000E+00
 -1       101 0.00000E+00 0.00000E+00 0.00000E+00
 -1       102 0.00000E+00 0.00000E+00 0.00000E+00
 -1       124 4.01047E-06 1.47954E-03-2.20337E-04
 -1       125 4.55571E-08 1.76790E-03-2.31386E-04
 -1       126-3.95232E-06 1.47955E-03-2.20329E-04
 -1       127-6.90939E-10 1.30125E-03-4.17291E-04
 -1       128-3.29375E-06 9.59023E-04-4.63437E-04
 -1       129 7.65519E-09 8.89390E-04-4.72200E-04
 -1       130 3.29717E-06 9.59029E-04-4.63436E-04
 -1       131-2.34309E-09 3.75476E-04-2.75994E-04
 -1       153 1.24871E-04 1.91639E-03-1.03752E-04
 -1       154 3.24182E-07 1.69284E-03-6.61157E-08
 -1       155-1.25160E-04 1.91612E-03 1.04157E-04
 -1       156 1.70781E-07 1.40650E-03 1.48611E-07
 -1       157-2.48937E-05 7.92851E-04-1.86029E-04
 -1       158-2.23536E-07 8.09695E-04 5.92194E-08
 -1       159 2.48042E-05 7.93049E-04 1.86106E-04
 -1       160-8.40956E-08 3.08221E-04-1.89546E-08
 -1       182 4.72159E-06 1.47906E-03 2.20737E-04
 -1       183 2.09672E-08 1.76955E-03 2.31163E-04
 -1       184-4.71281E-06 1.47903E-03 2.20703E-04
 -1       185-8.00610E-09 1.30201E-03 4.17486E-04
 -1       186-3.36878E-06 9.59755E-04 4.63555E-04
 -1       187 7.50850E-09 8.89998E-04 4.72363E-04
 -1       188 3.36941E-06 9.59751E-04 4.63559E-04
 -1       189-3.19243E-09 3.75576E-04 2.76061E-04
 -1       211 1.25153E-04 1.91615E-03 1.04156E-04
 -1       212-2.87166E-07 1.69285E-03-3.42009E-08
 -1       213-1.24837E-04 1.91634E-03-1.03796E-04
 -1       214-1.90993E-07 1.40648E-03 1.44132E-07
 -1       215-2.48015E-05 7.93041E-04 1.86105E-04
 -1       216 2.40396E-07 8.09706E-04 5.51442E-08
 -1       217 2.48965E-05 7.92858E-04-1.86021E-04
 -1       218 8.20490E-08 3.08218E-04-1.44927E-08
 -1       250 6.88159E-09 1.90853E-03-1.03132E-04
 -1       251 2.83927E-07 1.20911E-03 4.09996E-08
 -1       252-3.90682E-08 1.54240E-03 4.42045E-07
 -1       253-2.99483E-07 1.20910E-03-1.34255E-08
 -1       254-4.50127E-09 1.91012E-03 1.03268E-04
 -1       255 7.48936E-09 1.37485E-03 2.01450E-07
 -1       256-2.08812E-09 7.83536E-04-2.07207E-04
 -1       257 3.54882E-08 9.13931E-04 7.35579E-08
 -1       258-1.05346E-08 8.12427E-04 3.37637E-08
 -1       259-3.97712E-08 9.13927E-04 8.46924E-08
 -1       260-2.48737E-09 7.83651E-04 2.07367E-04
 -1       261 2.77615E-09 3.48443E-04-3.49422E-08
 -3
    1PSTEP                         3           3           1          
  100CL  103 1.50000E-02          81                     1    3           1
 -4  DISP        4    1
 -5  D1          1    2    1    0
 -5  D2          1    2    2    0
 -5  D3          1    2    3    0
 -5  ALL         1    2    0    0    1ALL
 -1         5 0.00000E+00 0.00000E+00 0.00000E+00
 -1         6 0.00000E+00 0.00000E+00 0.00000E+00
 -1         7 0.00000E+00 0.00000E+00 0.00000E+00
 -1         8 0.00000E+00 0.00000E+00 0.00000E+00
 -1        21 0.00000E+00 0.00000E+00 0.00000E+00
 -1        22 0.00000E+00 0.00000E+00 0.00000E+00
 -1        23 0.00000E+00 0.00000E+00 0.00000E+00
 -1        24 0.00000E+00 0.00000E+00 0.00000E+00
 -1        25 0.00000E+00 0.00000E+00 0.00000E+00
 -1        26 0.00000E+00 0.00000E+00 0.00000E+00
 -1        27 0.00000E+00 0.00000E+00 0.00000E+00
 -1        28 0.00000E+00 0.00000E+00 0.00000E+00
 -1        29 0.00000E+00 0.00000E+00 0.00000E+00
 -1        30 0.00000E+00 0.00000E+00 0.00000E+00
 -1        31 0.00000E+00 0.00000E+00 0.00000E+00
 -1        32 0.00000E+00 0.00000E+00 0.00000E+00
 -1        44 1.22877E-04-1.27237E-03 1.85364E-04
 -1        45 2.83947E-05-9.89440E-04 2.98636E-04
 -1        46-3.33583E-05-7.23931E-04 3.41897E-04
 -1        47 4.25452E-05-2.93308E-04 2.25117E-04
 -1        48-4.25438E-05-2.93300E-04 2.25077E-04
 -1        49 3.33262E-05-7.23905E-04 3.41845E-04
 -1        50-2.82583E-05-9.89487E-04 2.98680E-04
 -1        51-1.22695E-04-1.27257E-03 1.85373E-04
 -1        74-1.24926E-04-1.27001E-03-1.85361E-04
 -1        75-2.95327E-05-9.88110E-04-2.98657E-04
 -1        76 3.38408E-05-7.24520E-04-3.41907E-04
 -1        77-4.21959E-05-2.93677E-04-2.25092E-04
 -1        89 1.25043E-04-1.26982E-03-1.85326E-04
 -1        90 2.96835E-05-9.88071E-04-2.98613E-04
 -1        91-3.38896E-05-7.24543E-04-3.41962E-04
 -1        92 4.21978E-05-2.93689E-04-2.25138E-04
 -1        98 0.00000E+00 0.00000E+00 0.00000E+00
 -1        99 0.00000E+00 0.00000E+00 0.00000E+00
 -1       100 0.00000E+00 0.00000E+00 0.00000E+00
 -1       101 0.00000E+00 0.00000E+00 0.00000E+00
 -1       102 0.00000E+00 0.00000E+00 0.00000E+00
 -1       124-4.24916E-06-1.17220E-03 1.74645E-04
 -1       125 1.47926E-07-1.40064E-03 1.83309E-04
 -1       126 4.44689E-06-1.17219E-03 1.74704E-04
 -1       127 1.19786E-08-1.03091E-03 3.30287E-04
 -1       128 2.77330E-06-7.59496E-04 3.67053E-04
 -1       129 3.56779E-08-7.04601E-04 3.74218E-04
 -1       130-2.74271E-06-7.59491E-04 3.67061E-04
 -1       131-5.76811E-09-2.97481E-04 2.18604E-04
 -1       153-1.01073E-04-1.51946E-03 8.23872E-05
 -1       154-2.78948E-07-1.34742E-03-1.36100E-08
 -1       155 1.01807E-04-1.51732E-03-8.23660E-05
 -1       156 9.29866E-08-1.11449E-03 1.22683E-07
 -1       157 2.03370E-05-6.28468E-04 1.47269E-04
 -1       158 7.88085E-08-6.41758E-04 7.24445E-08
 -1       159-2.04489E-05-6.28972E-04-1.47270E-04
 -1       160-2.35370E-08-2.43789E-04 8.57532E-09
 -1       182-6.40219E-06-1.17308E-03-1.74666E-04
 -1       183 1.62544E-07-1.39939E-03-1.83242E-04
 -1       184 6.58427E-06-1.17309E-03-1.74753E-04
 -1       185-5.05021E-10-1.03085E-03-3.30509E-04
 -1       186 3.26516E-06-7.59327E-04-3.67044E-04
 -1       187 4.31999E-08-7.04892E-04-3.74311E-04
 -1       188-3.23550E-06-7.59320E-04-3.67045E-04
 -1       189-7.42092E-09-2.97520E-04-2.18629E-04
 -1       211-1.01746E-04-1.51718E-03-8.24417E-05
 -1       212 4.11468E-07-1.34744E-03 1.13311E-07
 -1       213 1.01166E-04-1.51963E-03 8.22975E-05
 -1       214-9.69202E-08-1.11449E-03 9.34694E-08
 -1       215 2.04708E-05-6.28997E-04-1.47278E-04
 -1       216-1.24548E-08-6.41760E-04 3.57666E-08
 -1       217-2.03069E-05-6.28444E-04 1.47262E-04
 -1       218 2.67372E-08-2.43789E-04 7.26934E-09
 -1       250 4.20644E-08-1.51128E-03 8.17043E-05
 -1       251-6.75208E-07-9.57213E-04 1.14930E-07
 -1       252-9.20810E-08-1.22092E-03-9.42546E-08
 -1       253 6.68577E-07-9.57203E-04-3.83975E-08
 -1       254 5.15614E-08-1.51241E-03-8.17194E-05
 -1       255 3.93663E-08-1.09006E-03-2.17895E-08
 -1       256 7.05564E-09-6.20341E-04 1.64277E-04
 -1       257 1.65115E-07-7.24503E-04-3.95840E-08
 -1       258-1.63319E-08-6.42698E-04 6.80870E-09
 -1       259-1.56060E-07-7.24502E-04 3.68482E-10
 -1       260 1.04031E-08-6.20104E-04-1.64266E-04
 -1       261 1.22221E-08-2.76004E-04 1.07404E-08
 -3
    1PSTEP                         4           4           1          
  100CL  104 2.00000E-02          81                     1    4           1
 -4  DISP        4    1
 -5  D1          1    2    1    0
 -5  D2          1    2    2    0
 -5  D3          1    2    3    0
 -5  ALL         1    2    0    0    1ALL
 -1         5 0.00000E+00 0.00000E+00 0.00000E+00
 -1         6 0.00000E+00 0.00000E+00 0.00000E+00
 -1         7 0.00000E+00 0.00000E+00 0.00000E+00
 -1         8 0.00000E+00 0.00000E+00 0.00000E+00
 -1        21 0.00000E+00 0.00000E+00 0.00000E+00
 -1        22 0.00000E+00 0.00000E+00 0.00000E+00
 -1        23 0.00000E+00 0.00000E+00 0.00000E+00
 -1        24 0.00000E+00 0.00000E+00 0.00000E+00
 -1        25 0.00000E+00 0.00000E+00 0.00000E+00
 -1        26 0.00000E+00 0.00000E+00 0.00000E+00
 -1        27 0.00000E+00 0.00000E+00 0.00000E+00
 -1        28 0.00000E+00 0.00000E+00 0.00000E+00
 -1        29 0.00000E+00 0.00000E+00 0.00000E+00
 -1        30 0.00000E+00 0.00000E+00 0.00000E+00
 -1        31 0.00000E+00 0.00000E+00 0.00000E+00
 -1        32 0.00000E+00 0.00000E+00 0.00000E+00
 -1        44-9.24733E-05 9.88761E-04-1.43756E-04
 -1        45-2.16192E-05 7.67836E-04-2.31809E-04
 -1        46 2.53831E-05 5.61752E-04-2.65724E-04
 -1        47-3.32038E-05 2.27401E-04-1.74560E-04
 -1        48 3.32034E-05 2.27395E-04-1.74536E-04
 -1        49-2.53496E-05 5.61743E-04-2.65695E-04
 -1        50 2.15446E-05 7.67852E-04-2.31843E-04
 -1        51 9.24476E-05 9.88869E-04-1.43807E-04
 -1        74 8.97414E-05 9.90798E-04 1.43725E-04
 -1        75 2.02475E-05 7.69021E-04 2.31757E-04
 -1        76-2.47975E-05 5.61277E-04 2.65774E-04
 -1        77 3.35847E-05 2.27084E-04 1.74572E-04
 -1        89-8.98350E-05 9.90713E-04 1.43739E-04
 -1        90-2.03056E-05 7.68992E-04 2.31735E-04
 -1        91 2.48146E-05 5.61294E-04 2.65795E-04
 -1        92-3.35840E-05 2.27088E-04 1.74588E-04
 -1        98 0.00000E+00 0.00000E+00 0.00000E+00
 -1        99 0.00000E+00 0.00000E+00 0.00000E+00
 -1       100 0.00000E+00 0.00000E+00 0.00000E+00
 -1       101 0.00000E+00 0.00000E+00 0.00000E+00
 -1       102 0.00000E+00 0.00000E+00 0.00000E+00
 -1       124 3.94321E-06 9.09378E-04-1.35397E-04
 -1       125-7.88375E-08 1.08612E-03-1.42180E-04
 -1       126-4.01668E-06 9.09373E-04-1.35439E-04
 -1       127 5.76056E-09 7.99572E-04-2.56342E-04
 -1       128-2.33947E-06 5.89702E-04-2.84841E-04
 -1       129-2.16828E-08 5.47154E-04-2.90171E-04
 -1       130 2.32909E-06 5.89697E-04-2.84839E-04
 -1       131 4.47264E-09 2.31007E-04-1.69748E-04
 -1       153 7.60875E-05 1.17605E-03-6.38496E-05
 -1       154-7.21149E-07 1.03980E-03 7.23695E-09
 -1       155-7.52379E-05 1.17819E-03 6.38407E-05
 -1       156-8.69086E-08 8.64660E-04 1.00391E-07
 -1       157-1.51440E-05 4.87672E-04-1.14421E-04
 -1       158 1.45709E-07 4.97636E-04 2.47891E-08
 -1       159 1.49227E-05 4.87189E-04 1.14402E-04
 -1       160 2.59442E-08 1.89585E-04 9.64155E-09
 -1       182 1.44936E-06 9.08852E-04 1.35515E-04
 -1       183-6.71472E-08 1.08663E-03 1.42001E-04
 -1       184-1.54187E-06 9.08855E-04 1.35546E-04
 -1       185-3.48765E-09 7.99318E-04 2.56115E-04
 -1       186-1.80776E-06 5.89826E-04 2.84837E-04
 -1       187-1.52644E-08 5.47136E-04 2.90095E-04
 -1       188 1.79540E-06 5.89825E-04 2.84841E-04
 -1       189 3.19738E-09 2.31079E-04 1.69755E-04
 -1       211 7.51900E-05 1.17810E-03 6.38864E-05
 -1       212 6.54704E-07 1.03979E-03-5.75800E-08
 -1       213-7.61005E-05 1.17613E-03-6.38152E-05
 -1       214 9.96539E-08 8.64661E-04 1.12057E-07
 -1       215-1.49367E-05 4.87201E-04 1.14403E-04
 -1       216-1.78131E-07 4.97633E-04 3.98117E-08
 -1       217 1.51378E-05 4.87660E-04-1.14421E-04
 -1       218-2.58238E-08 1.89585E-04 7.94987E-09
 -1       250-2.00491E-08 1.17492E-03-6.33982E-05
 -1       251-5.24928E-07 7.43173E-04-8.87613E-08
 -1       252 5.43367E-08 9.48810E-04 5.59382E-08
 -1       253 5.37083E-07 7.43179E-04-3.18249E-09
 -1       254-1.39176E-08 1.17345E-03 6.33180E-05
 -1       255-1.75817E-08 8.45141E-04 2.91224E-08
 -1       256-3.73764E-09 4.81578E-04-1.27311E-04
 -1       257 1.08869E-07 5.61835E-04 1.43126E-08
 -1       258 1.13903E-08 4.99546E-04-2.47846E-10
 -1       259-1.09885E-07 5.61837E-04-5.93965E-09
 -1       260-4.73864E-10 4.81947E-04 1.27351E-04
 -1       261-5.82539E-09 2.14220E-04-1.48297E-08
 -3
    1PSTEP                         5           5           1          
  100CL  105 2.50000E-02          81                     1    5           1
 -4  DISP        4    1
 -5  D1          1    2    1    0
 -5  D2          1    2    2    0
 -5  D3          1    2    3    0
 -5  ALL         1    2    0    0    1ALL
 -1         5 0.00000E+00 0.00000E+00 0.00000E+00
 -1         6 0.00000E+00 0.00000E+00 0.00000E+00
 -1         7 0.00000E+00 0.00000E+00 0.00000E+00
 -1         8 0.00000E+00 0.00000E+00 0.00000E+00
 -1        21 0.00000E+00 0.00000E+00 0.00000E+00
 -1        22 0.00000E+00 0.00000E+00 0.00000E+00
 -1        23 0.00000E+00 0.00000E+00 0.00000E+00
 -1        24 0.00000E+00 0.00000E+00 0.00000E+00
 -1        25 0.00000E+00 0.00000E+00 0.00000E+00
 -1        26 0.00000E+00 0.00000E+00 0.00000E+00
 -1        27 0.00000E+00 0.00000E+00 0.00000E+00
 -1        28 0.00000E+00 0.00000E+00 0.00000E+00
 -1        29 0.00000E+00 0.00000E+00 0.00000E+00
 -1        30 0.00000E+00 0.00000E+00 0.00000E+00
 -1        31 0.00000E+00 0.00000E+00 0.00000E+00
 -1        32 0.00000E+00 0.00000E+00 0.00000E+00
 -1        44 7.28498E-05-7.44399E-04 1.08606E-04
 -1        45 1.67530E-05-5.79096E-04 1.75012E-04
 -1        46-1.97864E-05-4.24556E-04 2.00101E-04
 -1        47 2.47998E-05-1.72085E-04 1.31939E-04
 -1        48-2.47994E-05-1.72080E-04 1.31910E-04
 -1        49 1.97747E-05-4.24528E-04 2.00057E-04
 -1        50-1.66482E-05-5.79136E-04 1.75041E-04
 -1        51-7.26642E-05-7.44552E-04 1.08585E-04
 -1        74-7.60039E-05-7.40654E-04-1.08590E-04
 -1        75-1.85018E-05-5.77035E-04-1.75094E-04
 -1        76 2.05609E-05-4.25516E-04-2.00126E-04
 -1        77-2.42637E-05-1.72677E-04-1.31904E-04
 -1        89 7.61314E-05-7.40459E-04-1.08553E-04
 -1        90 1.86289E-05-5.77015E-04-1.75064E-04
 -1        91-2.05931E-05-4.25526E-04-2.00173E-04
 -1        92 2.42674E-05-1.72687E-04-1.31944E-04
 -1        98 0.00000E+00 0.00000E+00 0.00000E+00
 -1        99 0.00000E+00 0.00000E+00 0.00000E+00
 -1       100 0.00000E+00 0.00000E+00 0.00000E+00
 -1       101 0.00000E+00 0.00000E+00 0.00000E+00
 -1       102 0.00000E+00 0.00000E+00 0.00000E+00
 -1       124-1.98132E-06-6.86858E-04 1.02321E-04
 -1       125 1.09359E-07-8.19947E-04 1.07412E-04
 -1       126 2.14952E-06-6.86852E-04 1.02364E-04
 -1       127 1.68202E-08-6.04058E-04 1.93149E-04
 -1       128 1.56744E-06-4.44784E-04 2.14959E-04
 -1       129 2.60649E-08-4.12537E-04 2.19228E-04
 -1       130-1.53843E-06-4.44784E-04 2.14971E-04
 -1       131-3.38447E-09-1.74251E-04 1.28019E-04
 -1       153-5.98358E-05-8.91841E-04 4.82548E-05
 -1       154-3.16011E-07-7.91274E-04-1.81128E-09
 -1       155 6.08418E-05-8.89063E-04-4.82667E-05
 -1       156 1.80159E-07-6.52326E-04 2.46323E-07
 -1       157 1.20416E-05-3.68432E-04 8.61679E-05
 -1       158 5.21105E-08-3.76606E-04 9.30444E-08
 -1       159-1.22311E-05-3.69093E-04-8.61735E-05
 -1       160-5.25640E-08-1.42846E-04-1.30312E-09
 -1       182-4.77164E-06-6.88299E-04-1.02260E-04
 -1       183 1.42282E-07-8.17979E-04-1.07385E-04
 -1       184 4.94480E-06-6.88279E-04-1.02314E-04
 -1       185 5.95429E-09-6.03922E-04-1.93582E-04
 -1       186 2.20899E-06-4.44457E-04-2.14942E-04
 -1       187 3.61230E-08-4.12878E-04-2.19322E-04
 -1       188-2.18009E-06-4.44447E-04-2.14948E-04
 -1       189-4.96514E-09-1.74307E-04-1.28016E-04
 -1       211-6.07875E-05-8.88936E-04-4.83342E-05
 -1       212 3.94205E-07-7.91308E-04 1.22041E-07
 -1       213 5.99136E-05-8.91982E-04 4.81883E-05
 -1       214-1.62356E-07-6.52317E-04 2.24526E-07
 -1       215 1.22488E-05-3.69112E-04-8.61799E-05
 -1       216-5.16837E-09-3.76615E-04 5.80310E-08
 -1       217-1.20129E-05-3.68413E-04 8.61570E-05
 -1       218 5.81659E-08-1.42844E-04-8.17999E-09
 -1       250 3.63839E-08-8.82384E-04 4.79419E-05
 -1       251-9.02270E-07-5.60748E-04-2.17711E-08
 -1       252-5.84128E-08-7.13502E-04-1.43735E-07
 -1       253 9.00153E-07-5.60729E-04-1.30614E-07
 -1       254 5.45759E-08-8.83705E-04-4.78105E-05
 -1       255 3.11672E-08-6.38986E-04-1.12447E-08
 -1       256 7.99665E-09-3.63455E-04 9.62903E-05
 -1       257 2.26640E-07-4.24504E-04-1.35434E-08
 -1       258-5.97978E-09-3.75980E-04 1.86243E-08
 -1       259-2.15476E-07-4.24499E-04 1.54647E-08
 -1       260 1.28636E-08-3.63124E-04-9.62901E-05
 -1       261 9.56403E-09-1.61687E-04 8.76060E-09
 -3
    1PSTEP                         6           6           1          
  100CL  106 3.00000E-02          81                     1    6           1
 -4  DISP        4    1
 -5  D1          1    2    1    0
 -5  D2          1    2    2    0
 -5  D3          1    2    3    0
 -5  ALL         1    2    0    0    1ALL
 -1         5 0.00000E+00 0.00000E+00 0.00000E+00
 -1         6 0.00000E+00 0.00000E+00 0.00000E+00
 -1         7 0.00000E+00 0.00000E+00 0.00000E+00
 -1         8 0.00000E+00 0.00000E+00 0.00000E+00
 -1        21 0.00000E+00 0.00000E+00 0.00000E+00
 -1        22 0.00000E+00 0.00000E+00 0.00000E+00
 -1        23 0.00000E+00 0.00000E+00 0.00000E+00
 -1        24 0.00000E+00 0.00000E+00 0.00000E+00
 -1        25 0.00000E+00 0.00000E+00 0.00000E+00
 -1        26 0.00000E+00 0.00000E+00 0.00000E+00
 -1        27 0.00000E+00 0.00000E+00 0.00000E+00
 -1        28 0.00000E+00 0.00000E+00 0.00000E+00
 -1        29 0.00000E+00 0.00000E+00 0.00000E+00
 -1        30 0.00000E+00 0.00000E+00 0.00000E+00
 -1        31 0.00000E+00 0.00000E+00 0.00000E+00
 -1        32 0.00000E+00 0.00000E+00 0.00000E+00
 -1        44-5.15977E-05 5.40594E-04-7.87616E-05
 -1        45-1.18935E-05 4.19999E-04-1.26975E-04
 -1        46 1.41276E-05 3.07931E-04-1.45313E-04
 -1        47-1.80794E-05 1.24681E-04-9.56232E-05