    1C
    1UUSER                                                              
    1UDATE              16.july.2018                                    
    1UTIME              20:38:14                                        
    1UHOST                                                              
    1UPGM               CalculiX                                        
    1UVERSION           Version 2.13                             
    1UCOMPILETIME       jue jun 14 00:40:39 CEST 2018                    
    1UDIR                                                               
    1UDBN                                                               
    1UMAT    1EL                                                        
    2C                            81                                     1
 -1         5 0.00000E+00 0.00000E+00 8.00000E+00
 -1         6 1.00000E+00 0.00000E+00 8.00000E+00
 -1         7 1.00000E+00 1.00000E+00 8.00000E+00
 -1         8 0.00000E+00 1.00000E+00 8.00000E+00
 -1        21 2.50000E-01 0.00000E+00 8.00000E+00
 -1        22 5.00000E-01 0.00000E+00 8.00000E+00
 -1        23 7.50000E-01 0.00000E+00 8.00000E+00
 -1        24 1.00000E+00 2.50000E-01 8.00000E+00
 -1        25 1.00000E+00 5.00000E-01 8.00000E+00
 -1        26 1.00000E+00 7.50000E-01 8.00000E+00
 -1        27 7.50000E-01 1.00000E+00 8.00000E+00
 -1        28 5.00000E-01 1.00000E+00 8.00000E+00
 -1        29 2.50000E-01 1.00000E+00 8.00000E+00
 -1        30 0.00000E+00 7.50000E-01 8.00000E+00
 -1        31 0.00000E+00 5.00000E-01 8.00000E+00
 -1        32 0.00000E+00 2.50000E-01 8.00000E+00
 -1        44 1.00000E+00 0.00000E+00 6.00000E+00
 -1        45 1.00000E+00 0.00000E+00 6.50000E+00
 -1        46 1.00000E+00 0.00000E+00 7.00000E+00
 -1        47 1.00000E+00 0.00000E+00 7.50000E+00
 -1        48 0.00000E+00 0.00000E+00 7.50000E+00
 -1        49 0.00000E+00 0.00000E+00 7.00000E+00
 -1        50 0.00000E+00 0.00000E+00 6.50000E+00
 -1        51 0.00000E+00 0.00000E+00 6.00000E+00
 -1        74 1.00000E+00 1.00000E+00 6.00000E+00
 -1        75 1.00000E+00 1.00000E+00 6.50000E+00
 -1        76 1.00000E+00 1.00000E+00 7.00000E+00
 -1        77 1.00000E+00 1.00000E+00 7.50000E+00
 -1        89 0.00000E+00 1.00000E+00 6.00000E+00
 -1        90 0.00000E+00 1.00000E+00 6.50000E+00
 -1        91 0.00000E+00 1.00000E+00 7.00000E+00
 -1        92 0.00000E+00 1.00000E+00 7.50000E+00
 -1        98 5.00000E-01 2.50000E-01 8.00000E+00
 -1        99 2.50000E-01 5.00000E-01 8.00000E+00
 -1       100 5.00000E-01 5.00000E-01 8.00000E+00
 -1       101 7.50000E-01 5.00000E-01 8.00000E+00
 -1       102 5.00000E-01 7.50000E-01 8.00000E+00
 -1       124 2.50000E-01 0.00000E+00 6.00000E+00
 -1       125 5.00000E-01 0.00000E+00 6.00000E+00
 -1       126 7.50000E-01 0.00000E+00 6.00000E+00
 -1       127 5.00000E-01 0.00000E+00 6.50000E+00
 -1       128 2.50000E-01 0.00000E+00 7.00000E+00
 -1       129 5.00000E-01 0.00000E+00 7.00000E+00
 -1       130 7.50000E-01 0.00000E+00 7.00000E+00
 -1       131 5.00000E-01 0.00000E+00 7.50000E+00
 -1       153 1.00000E+00 2.50000E-01 6.00000E+00
 -1       154 1.00000E+00 5.00000E-01 6.00000E+00
 -1       155 1.00000E+00 7.50000E-01 6.00000E+00
 -1       156 1.00000E+00 5.00000E-01 6.50000E+00
 -1       157 1.00000E+00 2.50000E-01 7.00000E+00
 -1       158 1.00000E+00 5.00000E-01 7.00000E+00
 -1       159 1.00000E+00 7.50000E-01 7.00000E+00
 -1       160 1.00000E+00 5.00000E-01 7.50000E+00
 -1       182 7.50000E-01 1.00000E+00 6.00000E+00
 -1       183 5.00000E-01 1.00000E+00 6.00000E+00
 -1       184 2.50000E-01 1.00000E+00 6.00000E+00
 -1       185 5.00000E-01 1.00000E+00 6.50000E+00
 -1       186 7.50000E-01 1.00000E+00 7.00000E+00
 -1       187 5.00000E-01 1.00000E+00 7.00000E+00
 -1       188 2.50000E-01 1.00000E+00 7.00000E+00
 -1       189 5.00000E-01 1.00000E+00 7.50000E+00
 -1       211 0.00000E+00 7.50000E-01 6.00000E+00
 -1       212 0.00000E+00 5.00000E-01 6.00000E+00
 -1       213 0.00000E+00 2.50000E-01 6.00000E+00
 -1       214 0.00000E+00 5.00000E-01 6.50000E+00
 -1       215 0.00000E+00 7.50000E-01 7.00000E+00
 -1       216 0.00000E+00 5.00000E-01 7.00000E+00
 -1       217 0.00000E+00 2.50000E-01 7.00000E+00
 -1       218 0.00000E+00 5.00000E-01 7.50000E+00
 -1       250 5.00000E-01 2.50000E-01 6.00000E+00
 -1       251 2.50000E-01 5.00000E-01 6.00000E+00
 -1       252 5.00000E-01 5.00000E-01 6.00000E+00
 -1       253 7.50000E-01 5.00000E-01 6.00000E+00
 -1       254 5.00000E-01 7.50000E-01 6.00000E+00
 -1       255 5.00000E-01 5.00000E-01 6.50000E+00
 -1       256 5.00000E-01 2.50000E-01 7.00000E+00
 -1       257 2.50000E-01 5.00000E-01 7.00000E+00
 -1       258 5.00000E-01 5.00000E-01 7.00000E+00
 -1       259 7.50000E-01 5.00000E-01 7.00000E+00
 -1       260 5.00000E-01 7.50000E-01 7.00000E+00
 -1       261 5.00000E-01 5.00000E-01 7.50000E+00
 -3
    3C                             8                                     1
 -1        25    4    0    1
 -2        51       125       252       212        49       129       258       216       124       250
 -2       251       213        50       127       255       214       128       256       257       217
 -1        26    4    0    1
 -2       125        44       154       252       129        46       158       258       126       153
 -2       253       250       127        45       156       255       130       157       259       256
 -1        27    4    0    1
 -2       212       252       183        89       216       258       187        91       251       254
 -2       184       211       214       255       185        90       257       260       188       215
 -1        28    4    0    1
 -2       252       154        74       183       258       158        76       187       253       155
 -2       182       254       255       156        75       185       259       159       186       260
 -1        29    4    0    1
 -2        49       129       258       216         5        22       100        31       128       256
 -2       257       217        48       131       261       218        21        98        99        32
 -1        30    4    0    1
 -2       129        46       158       258        22         6        25       100       130       157
 -2       259       256       131        47       160       261        23        24       101        98
 -1        31    4    0    1
 -2       216       258       187        91        31       100        28         8       257       260
 -2       188       215       218       261       189        92        99       102        29        30
 -1        32    4    0    1
 -2       258       158        76       187       100        25         7        28       259       159
 -2       186       260       261       160        77       189       101        26        27       102
 -3
    1PSTEP                         1           1           1          
  100CL  101 5.00000E-03          81                     1    1           1
 -4  DISP        4    1
 -5  D1          1    2    1    0
 -5  D2          1    2    2    0
 -5  D3          1    2    3    0
 -5  ALL         1    2    0    0    1ALL
 -1         5 0.00000E+00 0.00000E+00 0.00000E+00
 -1         6 0.00000E+00 0.00000E+00 0.00000E+00
 -1         7 0.00000E+00 0.00000E+00 0.00000E+00
 -1         8 0.00000E+00 0.00000E+00 0.00000E+00
 -1        21 0.00000E+00 0.00000E+00 0.00000E+00
 -1        22 0.00000E+00 0.00000E+00 0.00000E+00
 -1        23 0.00000E+00 0.00000E+00 0.00000E+00
 -1        24 0.00000E+00 0.00000E+00 0.00000E+00
 -1        25 0.00000E+00 0.00000E+00 0.00000E+00
 -1        26 0.00000E+00 0.00000E+00 0.00000E+00
 -1        27 0.00000E+00 0.00000E+00 0.00000E+00
 -1        28 0.00000E+00 0.00000E+00 0.00000E+00
 -1        29 0.00000E+00 0.00000E+00 0.00000E+00
 -1        30 0.00000E+00 0.00000E+00 0.00000E+00
 -1        31 0.00000E+00 0.00000E+00 0.00000E+00
 -1        32 0.00000E+00 0.00000E+00 0.00000E+00
 -1        44-6.00184E-05-3.46508E-03 4.48403E-04
 -1        45 5.67391E-05-2.56207E-03 7.85364E-04
 -1        46-4.77606E-05-1.79565E-03 9.49151E-04
 -1        47 1.30978E-04-6.75015E-04 5.43176E-04
 -1        48-1.30984E-04-6.75019E-04 5.43187E-04
 -1        49 4.77298E-05-1.79566E-03 9.49177E-04
 -1        50-5.67948E-05-2.56207E-03 7.85409E-04
 -1        51 5.98845E-05-3.46510E-03 4.48480E-04
 -1        74 3.18388E-04-4.41158E-03-4.94553E-04
 -1        75 1.90925E-04-2.97195E-03-7.84801E-04
 -1        76-1.10279E-04-1.59760E-03-9.49849E-04
 -1        77-2.07816E-04-5.26762E-04-5.58167E-04
 -1        89-3.18519E-04-4.41156E-03-4.94479E-04
 -1        90-1.90981E-04-2.97195E-03-7.84756E-04
 -1        91 1.10248E-04-1.59759E-03-9.49823E-04
 -1        92 2.07810E-04-5.26758E-04-5.58156E-04
 -1        98 0.00000E+00 0.00000E+00 0.00000E+00
 -1        99 0.00000E+00 0.00000E+00 0.00000E+00
 -1       100 0.00000E+00 0.00000E+00 0.00000E+00
 -1       101 0.00000E+00 0.00000E+00 0.00000E+00
 -1       102 0.00000E+00 0.00000E+00 0.00000E+00
 -1       124 1.49356E-04-2.96610E-03 4.29615E-04
 -1       125-5.04121E-08-3.58895E-03 4.48575E-04
 -1       126-1.49471E-04-2.96609E-03 4.29589E-04
 -1       127-3.29158E-08-2.56243E-03 9.03444E-04
 -1       128-9.11970E-06-1.95268E-03 9.48090E-04
 -1       129-9.63765E-09-1.81442E-03 9.41460E-04
 -1       130 9.09487E-06-1.95267E-03 9.48074E-04
 -1       131-2.22690E-09-7.36414E-04 5.56341E-04
 -1       153 6.97710E-05-3.63590E-03 1.91164E-04
 -1       154-1.20410E-04-2.50341E-03-2.09925E-05
 -1       155-6.50915E-05-3.88882E-03-2.37990E-04
 -1       156-1.20246E-04-2.78915E-03-6.46101E-05
 -1       157-2.05611E-05-1.50902E-03 3.92282E-04
 -1       158 8.84073E-05-1.56705E-03-2.94287E-05
 -1       159 4.67051E-05-1.47562E-03-4.11055E-04
 -1       160 3.98014E-05-6.56495E-04 4.88347E-06
 -1       182 1.14503E-04-2.56276E-03-4.71108E-04
 -1       183-4.98089E-08-4.35470E-03-4.76497E-04
 -1       184-1.14616E-04-2.56276E-03-4.71084E-04
 -1       185-3.30630E-08-2.83301E-03-8.73882E-04
 -1       186-4.40495E-05-2.16216E-03-9.82604E-04
 -1       187-9.60098E-09-1.83175E-03-9.63673E-04
 -1       188 4.40249E-05-2.16215E-03-9.82589E-04
 -1       189-2.22741E-09-7.19935E-04-5.64470E-04
 -1       211 6.49510E-05-3.88881E-03-2.37922E-04
 -1       212 1.20268E-04-2.50341E-03-2.09211E-05
 -1       213-6.99123E-05-3.63591E-03 1.91234E-04
 -1       214 1.20190E-04-2.78915E-03-6.45651E-05
 -1       215-4.67375E-05-1.47562E-03-4.11029E-04
 -1       216-8.84414E-05-1.56705E-03-2.94027E-05
 -1       217 2.05285E-05-1.50903E-03 3.92309E-04
 -1       218-3.98097E-05-6.56495E-04 4.89352E-06
 -1       250-5.14223E-08-4.08110E-03 1.74427E-04
 -1       251 3.03276E-05-2.57207E-03-1.05391E-05
 -1       252-5.19647E-08-3.12315E-03-1.59330E-05
 -1       253-3.04485E-05-2.57207E-03-1.05576E-05
 -1       254-5.10774E-08-4.41244E-03-2.54149E-04
 -1       255-3.46591E-08-2.59927E-03-3.19999E-05
 -1       256-1.01558E-08-1.60734E-03 3.95627E-04
 -1       257-4.11460E-05-1.74929E-03-1.20055E-05
 -1       258-1.01202E-08-1.79015E-03-1.45551E-05
 -1       259 4.11193E-05-1.74929E-03-1.20221E-05
 -1       260-1.01585E-08-1.62243E-03-4.18284E-04
 -1       261-3.38944E-09-7.17031E-04-1.98286E-06
 -3
    1PSTEP                         2           2           1          
  100CL  102 1.00000E-02          81                     1    2           1
 -4  DISP        4    1
 -5  D1          1    2    1    0
 -5  D2          1    2    2    0
 -5  D3          1    2    3    0
 -5  ALL         1    2    0    0    1ALL
 -1         5 0.00000E+00 0.00000E+00 0.00000E+00
 -1         6 0.00000E+00 0.00000E+00 0.00000E+00
 -1         7 0.00000E+00 0.00000E+00 0.00000E+00
 -1         8 0.00000E+00 0.00000E+00 0.00000E+00
 -1        21 0.00000E+00 0.00000E+00 0.00000E+00
 -1        22 0.00000E+00 0.00000E+00 0.00000E+00
 -1        23 0.00000E+00 0.00000E+00 0.00000E+00
 -1        24 0.00000E+00 0.00000E+00 0.00000E+00
 -1        25 0.00000E+00 0.00000E+00 0.00000E+00
 -1        26 0.00000E+00 0.00000E+00 0.00000E+00
 -1        27 0.00000E+00 0.00000E+00 0.00000E+00
 -1        28 0.00000E+00 0.00000E+00 0.00000E+00
 -1        29 0.00000E+00 0.00000E+00 0.00000E+00
 -1        30 0.00000E+00 0.00000E+00 0.00000E+00
 -1        31 0.00000E+00 0.00000E+00 0.00000E+00
 -1        32 0.00000E+00 0.00000E+00 0.00000E+00
 -1        44-1.50913E-04 1.60955E-03-2.33851E-04
 -1        45-3.49812E-05 1.24997E-03-3.77193E-04
 -1        46 4.12165E-05 9.13053E-04-4.32216E-04
 -1        47-5.40700E-05 3.69535E-04-2.83905E-04
 -1        48 5.40724E-05 3.69525E-04-2.83882E-04
 -1        49-4.12120E-05 9.13029E-04-4.32179E-04
 -1        50 3.48975E-05 1.24999E-03-3.77198E-04
 -1        51 1.50797E-04 1.60959E-03-2.33823E-04
 -1        74 1.49069E-04 1.61240E-03 2.33982E-04
 -1        75 3.39566E-05 1.25127E-03 3.77223E-04
 -1        76-4.05911E-05 9.12481E-04 4.32270E-04
 -1        77 5.44165E-05 3.69046E-04 2.83959E-04
 -1        89-1.49271E-04 1.61235E-03 2.34087E-04
 -1        90-3.40657E-05 1.25124E-03 3.77250E-04
 -1        91 4.05961E-05 9.12499E-04 4.32311E-04
 -1        92-5.44223E-05 3.69050E-04 2.83988E-04
 -1        98 0.00000E+00 0.00000E+00 0.00000E+00
 -1        99 0.00000E+00 0.00000E+00 0.00000E+00
 -1       100 0.00000E+00 0.00000E+00 0.00000E+00
 -1       101 0.00000E+00 0.00000E+00 0.00000E+00
 -1       102 0.00000E+00 0.00000E+00 0.00000E+00
 -1       124 5.75223E-06 1.47910E-03-2.20276E-04
 -1       125-6.85075E-08 1.76788E-03-2.31160E-04
 -1       126-5.85983E-06 1.47911E-03-2.20331E-04
 -1       127-2.03613E-08 1.30061E-03-4.17147E-04
 -1       128-3.58925E-06 9.59092E-04-4.63445E-04
 -1       129-1.49074E-08 8.89904E-04-4.72206E-04
 -1       130 3.57151E-06 9.59097E-04-4.63452E-04
 -1       131 4.00499E-09 3.75520E-04-2.76016E-04
 -1       153 1.24377E-04 1.91499E-03-1.03876E-04
 -1       154-6.20577E-08 1.69373E-03 1.34240E-07
 -1       155-1.24243E-04 1.91562E-03 1.03966E-04
 -1       156 1.81258E-07 1.40693E-03 2.55767E-07
 -1       157-2.49730E-05 7.92733E-04-1.86109E-04
 -1       158-2.00134E-07 8.09199E-04 7.62584E-08
 -1       159 2.47143E-05 7.92696E-04 1.86191E-04
 -1       160-9.09704E-08 3.08001E-04-2.76273E-08
 -1       182 5.47057E-06 1.47808E-03 2.20565E-04
 -1       183-1.37881E-07 1.76980E-03 2.31156E-04
 -1       184-5.68566E-06 1.47810E-03 2.20638E-04
 -1       185-2.17689E-08 1.30125E-03 4.17044E-04
 -1       186-3.45382E-06 9.59917E-04 4.63575E-04
 -1       187-2.78981E-08 8.90520E-04 4.72337E-04
 -1       188 3.42348E-06 9.59917E-04 4.63590E-04
 -1       189 2.49575E-09 3.75651E-04 2.76102E-04
 -1       211 1.24057E-04 1.91556E-03 1.04124E-04
 -1       212-1.55715E-07 1.69374E-03 1.57886E-07
 -1       213-1.24512E-04 1.91504E-03-1.03818E-04
 -1       214-1.90626E-07 1.40691E-03 3.07582E-07
 -1       215-2.47488E-05 7.92712E-04 1.86207E-04
 -1       216 1.37458E-07 8.09199E-04 1.05199E-07
 -1       217 2.49375E-05 7.92715E-04-1.86086E-04
 -1       218 8.89332E-08 3.07998E-04-2.91888E-08
 -1       250-2.57905E-08 1.91169E-03-1.02917E-04
 -1       251 1.88603E-08 1.20873E-03-3.16033E-08
 -1       252 2.59248E-08 1.54298E-03 7.01933E-08
 -1       253-1.05978E-07 1.20873E-03 5.39747E-08
 -1       254-6.67665E-08 1.91263E-03 1.03284E-04
 -1       255-4.63076E-08 1.37498E-03 1.33653E-07
 -1       256-5.12125E-10 7.83069E-04-2.07134E-04
 -1       257 7.91404E-08 9.13941E-04 9.06591E-08
 -1       258 1.28414E-08 8.12361E-04 7.50379E-08
 -1       259-9.37865E-08 9.13942E-04 5.35660E-08
 -1       260-5.52222E-09 7.83354E-04 2.07244E-04
 -1       261-7.99118E-09 3.48408E-04-1.32474E-08
 -3
    1PSTEP                         3           3           1          
  100CL  103 1.50000E-02          81                     1    3           1
 -4  DISP        4    1
 -5  D1          1    2    1    0
 -5  D2          1    2    2    0
 -5  D3          1    2    3    0
 -5  ALL         1    2    0    0    1ALL
 -1         5 0.00000E+00 0.00000E+00 0.00000E+00
 -1         6 0.00000E+00 0.00000E+00 0.00000E+00
 -1         7 0.00000E+00 0.00000E+00 0.00000E+00
 -1         8 0.00000E+00 0.00000E+00 0.00000E+00
 -1        21 0.00000E+00 0.00000E+00 0.00000E+00
 -1        22 0.00000E+00 0.00000E+00 0.00000E+00
 -1        23 0.00000E+00 0.00000E+00 0.00000E+00
 -1        24 0.00000E+00 0.00000E+00 0.00000E+00
 -1        25 0.00000E+00 0.00000E+00 0.00000E+00
 -1        26 0.00000E+00 0.00000E+00 0.00000E+00
 -1        27 0.00000E+00 0.00000E+00 0.00000E+00
 -1        28 0.00000E+00 0.00000E+00 0.00000E+00
 -1        29 0.00000E+00 0.00000E+00 0.00000E+00
 -1        30 0.00000E+00 0.00000E+00 0.00000E+00
 -1        31 0.00000E+00 0.00000E+00 0.00000E+00
 -1        32 0.00000E+00 0.00000E+00 0.00000E+00
 -1        44 1.23099E-04-1.27245E-03 1.85416E-04
 -1        45 2.87214E-05-9.89146E-04 2.98801E-04
 -1        46-3.33649E-05-7.24235E-04 3.42108E-04
 -1        47 4.24671E-05-2.93390E-04 2.25122E-04
 -1        48-4.24734E-05-2.93393E-04 2.25111E-04
 -1        49 3.33356E-05-7.24193E-04 3.42090E-04
 -1        50-2.86685E-05-9.89225E-04 2.98863E-04
 -1        51-1.23005E-04-1.27252E-03 1.85392E-04
 -1        74-1.22377E-04-1.27293E-03-1.85415E-04
 -1        75-2.84005E-05-9.89467E-04-2.98753E-04
 -1        76 3.33285E-05-7.24209E-04-3.42116E-04
 -1        77-4.25527E-05-2.93324E-04-2.25130E-04
 -1        89 1.22404E-04-1.27277E-03-1.85358E-04
 -1        90 2.84713E-05-9.89466E-04-2.98700E-04
 -1        91-3.33988E-05-7.24214E-04-3.42151E-04
 -1        92 4.25457E-05-2.93334E-04-2.25167E-04
 -1        98 0.00000E+00 0.00000E+00 0.00000E+00
 -1        99 0.00000E+00 0.00000E+00 0.00000E+00
 -1       100 0.00000E+00 0.00000E+00 0.00000E+00
 -1       101 0.00000E+00 0.00000E+00 0.00000E+00
 -1       102 0.00000E+00 0.00000E+00 0.00000E+00
 -1       124-5.64582E-06-1.17256E-03 1.74680E-04
 -1       125 5.28754E-08-1.40068E-03 1.83326E-04
 -1       126 5.71695E-06-1.17259E-03 1.74711E-04
 -1       127-1.74879E-09-1.03124E-03 3.30490E-04
 -1       128 3.03822E-06-7.59670E-04 3.67175E-04
 -1       129 1.33419E-08-7.04754E-04 3.74321E-04
 -1       130-3.03137E-06-7.59679E-04 3.67176E-04
 -1       131-5.15571E-09-2.97486E-04 2.18668E-04
 -1       153-1.00854E-04-1.51832E-03 8.23826E-05
 -1       154 1.62112E-07-1.34623E-03-1.70503E-08
 -1       155 1.00728E-04-1.51960E-03-8.23771E-05
 -1       156 2.40866E-09-1.11459E-03-2.18600E-08
 -1       157 2.02605E-05-6.28771E-04 1.47330E-04
 -1       158-6.25109E-08-6.41832E-04-1.34625E-08
 -1       159-2.02142E-05-6.28526E-04-1.47338E-04
 -1       160-5.98501E-10-2.43925E-04-9.31299E-09
 -1       182-4.14464E-06-1.17243E-03-1.74723E-04
 -1       183 1.08585E-07-1.40088E-03-1.83245E-04
 -1       184 4.23431E-06-1.17243E-03-1.74804E-04
 -1       185-3.06344E-08-1.03121E-03-3.30469E-04
 -1       186 2.76841E-06-7.59737E-04-3.67179E-04
 -1       187 2.23742E-08-7.04737E-04-3.74320E-04
 -1       188-2.77216E-06-7.59726E-04-3.67172E-04
 -1       189-1.06316E-08-2.97513E-04-2.18681E-04
 -1       211-1.00710E-04-1.51952E-03-8.24698E-05
 -1       212-8.22534E-08-1.34634E-03 9.96470E-08
 -1       213 1.00882E-04-1.51846E-03 8.23563E-05
 -1       214-6.38612E-08-1.11457E-03-2.50216E-08
 -1       215 2.02052E-05-6.28554E-04-1.47319E-04
 -1       216 1.00187E-07-6.41865E-04-2.17711E-08
 -1       217-2.02452E-05-6.28758E-04 1.47336E-04
 -1       218-6.73638E-09-2.43924E-04 3.92109E-09
 -1       250-1.97661E-08-1.51288E-03 8.18004E-05
 -1       251 4.88509E-07-9.57601E-04 1.13312E-07
 -1       252-1.12455E-07-1.22133E-03 3.84978E-08
 -1       253-5.48567E-07-9.57542E-04-5.07681E-08
 -1       254 1.08415E-08-1.51179E-03-8.16913E-05
 -1       255 1.57203E-08-1.09010E-03-1.70557E-08
 -1       256-1.07727E-08-6.20250E-04 1.64285E-04
 -1       257-9.81264E-08-7.24517E-04-2.19126E-08
 -1       258-3.06954E-08-6.42962E-04-1.25122E-08
 -1       259 8.07610E-08-7.24501E-04 7.31197E-09
 -1       260-6.65923E-09-6.20505E-04-1.64319E-04
 -1       261 6.77518E-09-2.76044E-04 8.34505E-09
 -3
    1PSTEP                         4           4           1          
  100CL  104 2.00000E-02          81                     1    4           1
 -4  DISP        4    1
 -5  D1          1    2    1    0
 -5  D2          1    2    2    0
 -5  D3          1    2    3    0
 -5  ALL         1    2    0    0    1ALL
 -1         5 0.00000E+00 0.00000E+00 0.00000E+00
 -1         6 0.00000E+00 0.00000E+00 0.00000E+00
 -1         7 0.00000E+00 0.00000E+00 0.00000E+00
 -1         8 0.00000E+00 0.00000E+00 0.00000E+00
 -1        21 0.00000E+00 0.00000E+00 0.00000E+00
 -1        22 0.00000E+00 0.00000E+00 0.00000E+00
 -1        23 0.00000E+00 0.00000E+00 0.00000E+00
 -1        24 0.00000E+00 0.00000E+00 0.00000E+00
 -1        25 0.00000E+00 0.00000E+00 0.00000E+00
 -1        26 0.00000E+00 0.00000E+00 0.00000E+00
 -1        27 0.00000E+00 0.00000E+00 0.00000E+00
 -1        28 0.00000E+00 0.00000E+00 0.00000E+00
 -1        29 0.00000E+00 0.00000E+00 0.00000E+00
 -1        30 0.00000E+00 0.00000E+00 0.00000E+00
 -1        31 0.00000E+00 0.00000E+00 0.00000E+00
 -1        32 0.00000E+00 0.00000E+00 0.00000E+00
 -1        44-9.65645E-05 9.85154E-04-1.43798E-04
 -1        45-2.30603E-05 7.66092E-04-2.31809E-04
 -1        46 2.62450E-05 5.62704E-04-2.65444E-04
 -1        47-3.26766E-05 2.28063E-04-1.74692E-04
 -1        48 3.26743E-05 2.28054E-04-1.74664E-04
 -1        49-2.62226E-05 5.62716E-04-2.65418E-04
 -1        50 2.30035E-05 7.66068E-04-2.31818E-04
 -1        51 9.64528E-05 9.85337E-04-1.43828E-04
 -1        74 9.37712E-05 9.87461E-04 1.43802E-04
 -1        75 2.15709E-05 7.67503E-04 2.31843E-04
 -1        76-2.58633E-05 5.62316E-04 2.65407E-04
 -1        77 3.30781E-05 2.27696E-04 1.74664E-04
 -1        89-9.37551E-05 9.87494E-04 1.43799E-04
 -1        90-2.16485E-05 7.67442E-04 2.31812E-04
 -1        91 2.58768E-05 5.62350E-04 2.65430E-04
 -1        92-3.30797E-05 2.27695E-04 1.74676E-04
 -1        98 0.00000E+00 0.00000E+00 0.00000E+00
 -1        99 0.00000E+00 0.00000E+00 0.00000E+00
 -1       100 0.00000E+00 0.00000E+00 0.00000E+00
 -1       101 0.00000E+00 0.00000E+00 0.00000E+00
 -1       102 0.00000E+00 0.00000E+00 0.00000E+00
 -1       124 5.26854E-06 9.10361E-04-1.35506E-04
 -1       125-9.50268E-08 1.08540E-03-1.42136E-04
 -1       126-5.39871E-06 9.10304E-04-1.35508E-04
 -1       127-3.79900E-09 8.00063E-04-2.56353E-04
 -1       128-2.62860E-06 5.89321E-04-2.84776E-04
 -1       129-1.44991E-08 5.46861E-04-2.90357E-04
 -1       130 2.62023E-06 5.89308E-04-2.84785E-04
 -1       131 3.87126E-09 2.30868E-04-1.69651E-04
 -1       153 7.83030E-05 1.17671E-03-6.39635E-05
 -1       154-6.00049E-07 1.04345E-03 2.98390E-08
 -1       155-7.73448E-05 1.18038E-03 6.38757E-05
 -1       156-5.65264E-08 8.64093E-04 1.78138E-07
 -1       157-1.56418E-05 4.88407E-04-1.14272E-04
 -1       158 1.95956E-07 4.98489E-04 2.91261E-08
 -1       159 1.54130E-05 4.87646E-04 1.14235E-04
 -1       160 1.14302E-09 1.89502E-04-1.10527E-08
 -1       182 1.40741E-06 9.09560E-04 1.35452E-04
 -1       183-4.10454E-08 1.08603E-03 1.42241E-04
 -1       184-1.43019E-06 9.09621E-04 1.35526E-04
 -1       185 9.23058E-10 7.99827E-04 2.56072E-04
 -1       186-1.87386E-06 5.89456E-04 2.84794E-04
 -1       187-2.45109E-08 5.46687E-04 2.90227E-04
 -1       188 1.85242E-06 5.89465E-04 2.84787E-04
 -1       189 1.20520E-09 2.30956E-04 1.69658E-04
 -1       211 7.73729E-05 1.18033E-03 6.38369E-05
 -1       212 5.45747E-07 1.04337E-03-2.90685E-08
 -1       213-7.83788E-05 1.17679E-03-6.38647E-05
 -1       214 5.46066E-08 8.64133E-04 1.89617E-07
 -1       215-1.54295E-05 4.87647E-04 1.14255E-04
 -1       216-2.25196E-07 4.98446E-04 4.54946E-08
 -1       217 1.56361E-05 4.88388E-04-1.14283E-04
 -1       218-3.49652E-09 1.89504E-04-9.53085E-09
 -1       250-3.54906E-08 1.17268E-03-6.33108E-05
 -1       251-1.44829E-06 7.43131E-04-6.33648E-08
 -1       252 3.48151E-08 9.46362E-04 5.91439E-08
 -1       253 1.44811E-06 7.43184E-04 2.89614E-09
 -1       254-1.11623E-08 1.16972E-03 6.34737E-05
 -1       255-1.73447E-08 8.45661E-04-1.51700E-08
 -1       256-3.90258E-09 4.81257E-04-1.27460E-04
 -1       257 2.77413E-07 5.62004E-04 7.81945E-09
 -1       258 5.16947E-09 4.98850E-04-2.36457E-09
 -1       259-2.83680E-07 5.62023E-04-9.22337E-09
 -1       260-7.96540E-09 4.81893E-04 1.27458E-04
 -1       261-5.48066E-09 2.14246E-04-5.67386E-09
 -3
    1PSTEP                         5           5           1          
  100CL  105 2.50000E-02          81                     1    5           1
 -4  DISP        4    1
 -5  D1          1    2    1    0
 -5  D2          1    2    2    0
 -5  D3          1    2    3    0
 -5  ALL         1    2    0    0    1ALL
 -1         5 0.00000E+00 0.00000E+00 0.00000E+00
 -1         6 0.00000E+00 0.00000E+00 0.00000E+00
 -1         7 0.00000E+00 0.00000E+00 0.00000E+00
 -1         8 0.00000E+00 0.00000E+00 0.00000E+00
 -1        21 0.00000E+00 0.00000E+00 0.00000E+00
 -1        22 0.00000E+00 0.00000E+00 0.00000E+00
 -1        23 0.00000E+00 0.00000E+00 0.00000E+00
 -1        24 0.00000E+00 0.00000E+00 0.00000E+00
 -1        25 0.00000E+00 0.00000E+00 0.00000E+00
 -1        26 0.00000E+00 0.00000E+00 0.00000E+00
 -1        27 0.00000E+00 0.00000E+00 0.00000E+00
 -1        28 0.00000E+00 0.00000E+00 0.00000E+00
 -1        29 0.00000E+00 0.00000E+00 0.00000E+00
 -1        30 0.00000E+00 0.00000E+00 0.00000E+00
 -1        31 0.00000E+00 0.00000E+00 0.00000E+00
 -1        32 0.00000E+00 0.00000E+00 0.00000E+00
 -1        44 7.14902E-05-7.44945E-04 1.08554E-04
 -1        45 1.66933E-05-5.79137E-04 1.74809E-04
 -1        46-1.95951E-05-4.24550E-04 2.00432E-04
 -1        47 2.49190E-05-1.71920E-04 1.31897E-04
 -1        48-2.49182E-05-1.71914E-04 1.31869E-04
 -1        49 1.95624E-05-4.24531E-04 2.00400E-04
 -1        50-1.66029E-05-5.79166E-04 1.74835E-04
 -1        51-7.14102E-05-7.45043E-04 1.08552E-04
 -1        74-7.23127E-05-7.44006E-04-1.08610E-04
 -1        75-1.70906E-05-5.78575E-04-1.74879E-04
 -1        76 1.98269E-05-4.24872E-04-2.00393E-04
 -1        77-2.47745E-05-1.72086E-04-1.31862E-04
 -1        89 7.23595E-05-7.43892E-04-1.08562E-04
 -1        90 1.71875E-05-5.78541E-04-1.74834E-04
 -1        91-1.98599E-05-4.24889E-04-2.00430E-04
 -1        92 2.47757E-05-1.72091E-04-1.31892E-04
 -1        98 0.00000E+00 0.00000E+00 0.00000E+00
 -1        99 0.00000E+00 0.00000E+00 0.00000E+00
 -1       100 0.00000E+00 0.00000E+00 0.00000E+00
 -1       101 0.00000E+00 0.00000E+00 0.00000E+00
 -1       102 0.00000E+00 0.00000E+00 0.00000E+00
 -1       124-1.89935E-06-6.86671E-04 1.02256E-04
 -1       125 1.04255E-07-8.20475E-04 1.07311E-04
 -1       126 2.01757E-06-6.86685E-04 1.02318E-04
 -1       127-2.97661E-09-6.04121E-04 1.93573E-04
 -1       128 1.55163E-06-4.45033E-04 2.15015E-04
 -1       129 2.70509E-08-4.12637E-04 2.19132E-04
 -1       130-1.53391E-06-4.45030E-04 2.15016E-04
 -1       131-5.07971E-09-1.74295E-04 1.28080E-04
 -1       153-5.86636E-05-8.89685E-04 4.82547E-05
 -1       154-3.37377E-08-7.87117E-04-4.53006E-08
 -1       155 5.89663E-05-8.89462E-04-4.82059E-05
 -1       156 3.75055E-08-6.52680E-04 7.73170E-08
 -1       157 1.16942E-05-3.68215E-04 8.62647E-05
 -1       158 1.30214E-08-3.76044E-04 3.06917E-08
 -1       159-1.17385E-05-3.68310E-04-8.62710E-05
 -1       160-1.15427E-08-1.43042E-04 2.32287E-10
 -1       182-2.20725E-06-6.87090E-04-1.02268E-04
 -1       183 9.20035E-08-8.19967E-04-1.07361E-04
 -1       184 2.29995E-06-6.87093E-04-1.02326E-04
 -1       185-1.52408E-09-6.04103E-04-1.93675E-04
 -1       186 1.64213E-06-4.44945E-04-2.15013E-04
 -1       187 2.74057E-08-4.12685E-04-2.19172E-04
 -1       188-1.62439E-06-4.44943E-04-2.15012E-04
 -1       189-4.51465E-09-1.74310E-04-1.28088E-04
 -1       211-5.89420E-05-8.89358E-04-4.82451E-05
 -1       212 1.24287E-07-7.87101E-04 4.04905E-08
 -1       213 5.87105E-05-8.89767E-04 4.81958E-05
 -1       214-5.09516E-08-6.52683E-04 6.13050E-08
 -1       215 1.17531E-05-3.68324E-04-8.62745E-05
 -1       216 3.18032E-08-3.76040E-04 1.02153E-08
 -1       217-1.16807E-05-3.68196E-04 8.62624E-05
 -1       218 1.24898E-08-1.43041E-04 2.23745E-09
 -1       250 3.06467E-08-8.84873E-04 4.78863E-05
 -1       251-5.46722E-08-5.60972E-04 4.64777E-08
 -1       252-6.58009E-08-7.15468E-04 2.60612E-08
 -1       253 4.56748E-08-5.60983E-04-6.77286E-08
 -1       254 2.24161E-08-8.84745E-04-4.78710E-05
 -1       255 2.48588E-08-6.38263E-04-7.86605E-09
 -1       256 4.51753E-09-3.63645E-04 9.62272E-05
 -1       257 2.54754E-08-4.24321E-04-1.35751E-08
 -1       258-1.36465E-08-3.76812E-04-2.36146E-09
 -1       259-2.16365E-08-4.24322E-04 1.36715E-08
 -1       260 5.16452E-09-3.63646E-04-9.62258E-05
 -1       261 8.02879E-09-1.61726E-04 4.48869E-10
 -3
    1PSTEP                         6           6           1          
  100CL  106 3.00000E-02          81                     1    6           1
 -4  DISP        4    1
 -5  D1          1    2    1    0
 -5  D2          1    2    2    0
 -5  D3          1    2    3    0
 -5  ALL         1    2    0    0    1ALL
 -1         5 0.00000E+00 0.00000E+00 0.00000E+00
 -1         6 0.00000E+00 0.00000E+00 0.00000E+00
 -1         7 0.00000E+00 0.00000E+00 0.00000E+00
 -1         8 0.00000E+00 0.00000E+00 0.00000E+00
 -1        21 0.00000E+00 0.00000E+00 0.00000E+00
 -1        22 0.00000E+00 0.00000E+00 0.00000E+00
 -1        23 0.00000E+00 0.00000E+00 0.00000E+00
 -1        24 0.00000E+00 0.00000E+00 0.00000E+00
 -1        25 0.00000E+00 0.00000E+00 0.00000E+00
 -1        26 0.00000E+00 0.00000E+00 0.00000E+00
 -1        27 0.00000E+00 0.00000E+00 0.00000E+00
 -1        28 0.00000E+00 0.00000E+00 0.00000E+00
 -1        29 0.00000E+00 0.00000E+00 0.00000E+00
 -1        30 0.00000E+00 0.00000E+00 0.00000E+00
 -1        31 0.00000E+00 0.00000E+00 0.00000E+00
 -1        32 0.00000E+00 0.00000E+00 0.00000E+00
 -1        44-5.39711E-05 5.38792E-04-7.87443E-05
 -1        45-1.28031E-05 4.19288E-04-1.26937E-04
 -1        46 1.45433E-05 3.08067E-04-1.45140E-04
 -1        47-1.77969E-05 1.24939E-04-9.56469E-05