    1C
    1UUSER                                                              
    1UDATE              15.july.2018                                    
    1UTIME              21:45:13                                        
    1UHOST                                                              
    1UPGM               CalculiX                                        
    1UVERSION           Version 2.13                             
    1UCOMPILETIME       jue jun 14 00:40:39 CEST 2018                    
    1UDIR                                                               
    1UDBN                                                               
    1UMAT    1EL                                                        
    2C                            81                                     1
 -1         5 0.00000E+00 0.00000E+00 8.00000E+00
 -1         6 1.00000E+00 0.00000E+00 8.00000E+00
 -1         7 1.00000E+00 1.00000E+00 8.00000E+00
 -1         8 0.00000E+00 1.00000E+00 8.00000E+00
 -1        21 2.50000E-01 0.00000E+00 8.00000E+00
 -1        22 5.00000E-01 0.00000E+00 8.00000E+00
 -1        23 7.50000E-01 0.00000E+00 8.00000E+00
 -1        24 1.00000E+00 2.50000E-01 8.00000E+00
 -1        25 1.00000E+00 5.00000E-01 8.00000E+00
 -1        26 1.00000E+00 7.50000E-01 8.00000E+00
 -1        27 7.50000E-01 1.00000E+00 8.00000E+00
 -1        28 5.00000E-01 1.00000E+00 8.00000E+00
 -1        29 2.50000E-01 1.00000E+00 8.00000E+00
 -1        30 0.00000E+00 7.50000E-01 8.00000E+00
 -1        31 0.00000E+00 5.00000E-01 8.00000E+00
 -1        32 0.00000E+00 2.50000E-01 8.00000E+00
 -1        44 1.00000E+00 0.00000E+00 6.00000E+00
 -1        45 1.00000E+00 0.00000E+00 6.50000E+00
 -1        46 1.00000E+00 0.00000E+00 7.00000E+00
 -1        47 1.00000E+00 0.00000E+00 7.50000E+00
 -1        48 0.00000E+00 0.00000E+00 7.50000E+00
 -1        49 0.00000E+00 0.00000E+00 7.00000E+00
 -1        50 0.00000E+00 0.00000E+00 6.50000E+00
 -1        51 0.00000E+00 0.00000E+00 6.00000E+00
 -1        74 1.00000E+00 1.00000E+00 6.00000E+00
 -1        75 1.00000E+00 1.00000E+00 6.50000E+00
 -1        76 1.00000E+00 1.00000E+00 7.00000E+00
 -1        77 1.00000E+00 1.00000E+00 7.50000E+00
 -1        89 0.00000E+00 1.00000E+00 6.00000E+00
 -1        90 0.00000E+00 1.00000E+00 6.50000E+00
 -1        91 0.00000E+00 1.00000E+00 7.00000E+00
 -1        92 0.00000E+00 1.00000E+00 7.50000E+00
 -1        98 5.00000E-01 2.50000E-01 8.00000E+00
 -1        99 2.50000E-01 5.00000E-01 8.00000E+00
 -1       100 5.00000E-01 5.00000E-01 8.00000E+00
 -1       101 7.50000E-01 5.00000E-01 8.00000E+00
 -1       102 5.00000E-01 7.50000E-01 8.00000E+00
 -1       124 2.50000E-01 0.00000E+00 6.00000E+00
 -1       125 5.00000E-01 0.00000E+00 6.00000E+00
 -1       126 7.50000E-01 0.00000E+00 6.00000E+00
 -1       127 5.00000E-01 0.00000E+00 6.50000E+00
 -1       128 2.50000E-01 0.00000E+00 7.00000E+00
 -1       129 5.00000E-01 0.00000E+00 7.00000E+00
 -1       130 7.50000E-01 0.00000E+00 7.00000E+00
 -1       131 5.00000E-01 0.00000E+00 7.50000E+00
 -1       153 1.00000E+00 2.50000E-01 6.00000E+00
 -1       154 1.00000E+00 5.00000E-01 6.00000E+00
 -1       155 1.00000E+00 7.50000E-01 6.00000E+00
 -1       156 1.00000E+00 5.00000E-01 6.50000E+00
 -1       157 1.00000E+00 2.50000E-01 7.00000E+00
 -1       158 1.00000E+00 5.00000E-01 7.00000E+00
 -1       159 1.00000E+00 7.50000E-01 7.00000E+00
 -1       160 1.00000E+00 5.00000E-01 7.50000E+00
 -1       182 7.50000E-01 1.00000E+00 6.00000E+00
 -1       183 5.00000E-01 1.00000E+00 6.00000E+00
 -1       184 2.50000E-01 1.00000E+00 6.00000E+00
 -1       185 5.00000E-01 1.00000E+00 6.50000E+00
 -1       186 7.50000E-01 1.00000E+00 7.00000E+00
 -1       187 5.00000E-01 1.00000E+00 7.00000E+00
 -1       188 2.50000E-01 1.00000E+00 7.00000E+00
 -1       189 5.00000E-01 1.00000E+00 7.50000E+00
 -1       211 0.00000E+00 7.50000E-01 6.00000E+00
 -1       212 0.00000E+00 5.00000E-01 6.00000E+00
 -1       213 0.00000E+00 2.50000E-01 6.00000E+00
 -1       214 0.00000E+00 5.00000E-01 6.50000E+00
 -1       215 0.00000E+00 7.50000E-01 7.00000E+00
 -1       216 0.00000E+00 5.00000E-01 7.00000E+00
 -1       217 0.00000E+00 2.50000E-01 7.00000E+00
 -1       218 0.00000E+00 5.00000E-01 7.50000E+00
 -1       250 5.00000E-01 2.50000E-01 6.00000E+00
 -1       251 2.50000E-01 5.00000E-01 6.00000E+00
 -1       252 5.00000E-01 5.00000E-01 6.00000E+00
 -1       253 7.50000E-01 5.00000E-01 6.00000E+00
 -1       254 5.00000E-01 7.50000E-01 6.00000E+00
 -1       255 5.00000E-01 5.00000E-01 6.50000E+00
 -1       256 5.00000E-01 2.50000E-01 7.00000E+00
 -1       257 2.50000E-01 5.00000E-01 7.00000E+00
 -1       258 5.00000E-01 5.00000E-01 7.00000E+00
 -1       259 7.50000E-01 5.00000E-01 7.00000E+00
 -1       260 5.00000E-01 7.50000E-01 7.00000E+00
 -1       261 5.00000E-01 5.00000E-01 7.50000E+00
 -3
    3C                             8                                     1
 -1        25    4    0    1
 -2        51       125       252       212        49       129       258       216       124       250
 -2       251       213        50       127       255       214       128       256       257       217
 -1        26    4    0    1
 -2       125        44       154       252       129        46       158       258       126       153
 -2       253       250       127        45       156       255       130       157       259       256
 -1        27    4    0    1
 -2       212       252       183        89       216       258       187        91       251       254
 -2       184       211       214       255       185        90       257       260       188       215
 -1        28    4    0    1
 -2       252       154        74       183       258       158        76       187       253       155
 -2       182       254       255       156        75       185       259       159       186       260
 -1        29    4    0    1
 -2        49       129       258       216         5        22       100        31       128       256
 -2       257       217        48       131       261       218        21        98        99        32
 -1        30    4    0    1
 -2       129        46       158       258        22         6        25       100       130       157
 -2       259       256       131        47       160       261        23        24       101        98
 -1        31    4    0    1
 -2       216       258       187        91        31       100        28         8       257       260
 -2       188       215       218       261       189        92        99       102        29        30
 -1        32    4    0    1
 -2       258       158        76       187       100        25         7        28       259       159
 -2       186       260       261       160        77       189       101        26        27       102
 -3
    1PSTEP                         1           1           1          
  100CL  101 5.00000E-03          81                     1    1           1
 -4  DISP        4    1
 -5  D1          1    2    1    0
 -5  D2          1    2    2    0
 -5  D3          1    2    3    0
 -5  ALL         1    2    0    0    1ALL
 -1         5 0.00000E+00 0.00000E+00 0.00000E+00
 -1         6 0.00000E+00 0.00000E+00 0.00000E+00
 -1         7 0.00000E+00 0.00000E+00 0.00000E+00
 -1         8 0.00000E+00 0.00000E+00 0.00000E+00
 -1        21 0.00000E+00 0.00000E+00 0.00000E+00
 -1        22 0.00000E+00 0.00000E+00 0.00000E+00
 -1        23 0.00000E+00 0.00000E+00 0.00000E+00
 -1        24 0.00000E+00 0.00000E+00 0.00000E+00
 -1        25 0.00000E+00 0.00000E+00 0.00000E+00
 -1        26 0.00000E+00 0.00000E+00 0.00000E+00
 -1        27 0.00000E+00 0.00000E+00 0.00000E+00
 -1        28 0.00000E+00 0.00000E+00 0.00000E+00
 -1        29 0.00000E+00 0.00000E+00 0.00000E+00
 -1        30 0.00000E+00 0.00000E+00 0.00000E+00
 -1        31 0.00000E+00 0.00000E+00 0.00000E+00
 -1        32 0.00000E+00 0.00000E+00 0.00000E+00
 -1        44-6.01941E-05-3.46536E-03 4.48569E-04
 -1        45 5.68292E-05-2.56230E-03 7.85515E-04
 -1        46-4.77893E-05-1.79571E-03 9.49239E-04
 -1        47 1.31030E-04-6.75002E-04 5.43189E-04
 -1        48-1.31031E-04-6.75003E-04 5.43190E-04
 -1        49 4.77867E-05-1.79571E-03 9.49242E-04
 -1        50-5.68365E-05-2.56230E-03 7.85519E-04
 -1        51 6.01853E-05-3.46536E-03 4.48574E-04
 -1        74 3.18754E-04-4.41228E-03-4.94467E-04
 -1        75 1.91105E-04-2.97240E-03-7.84567E-04
 -1        76-1.10377E-04-1.59756E-03-9.50048E-04
 -1        77-2.07880E-04-5.26665E-04-5.58239E-04
 -1        89-3.18762E-04-4.41227E-03-4.94462E-04
 -1        90-1.91112E-04-2.97240E-03-7.84563E-04
 -1        91 1.10375E-04-1.59756E-03-9.50045E-04
 -1        92 2.07879E-04-5.26665E-04-5.58238E-04
 -1        98 0.00000E+00 0.00000E+00 0.00000E+00
 -1        99 0.00000E+00 0.00000E+00 0.00000E+00
 -1       100 0.00000E+00 0.00000E+00 0.00000E+00
 -1       101 0.00000E+00 0.00000E+00 0.00000E+00
 -1       102 0.00000E+00 0.00000E+00 0.00000E+00
 -1       124 1.49837E-04-2.96629E-03 4.29624E-04
 -1       125-5.55070E-09-3.58977E-03 4.48911E-04
 -1       126-1.49847E-04-2.96629E-03 4.29620E-04
 -1       127-3.23543E-09-2.56262E-03 9.03791E-04
 -1       128-9.17790E-06-1.95288E-03 9.48224E-04
 -1       129-1.43931E-09-1.81459E-03 9.41583E-04
 -1       130 9.17520E-06-1.95288E-03 9.48223E-04
 -1       131-2.33002E-10-7.36438E-04 5.56389E-04
 -1       153 7.00079E-05-3.63598E-03 1.91131E-04
 -1       154-1.20378E-04-2.50279E-03-2.07265E-05
 -1       155-6.51836E-05-3.88892E-03-2.38060E-04
 -1       156-1.20320E-04-2.78953E-03-6.45467E-05
 -1       157-2.06142E-05-1.50893E-03 3.92369E-04
 -1       158 8.84924E-05-1.56694E-03-2.94410E-05
 -1       159 4.67638E-05-1.47553E-03-4.11081E-04
 -1       160 3.98342E-05-6.56524E-04 4.87968E-06
 -1       182 1.14953E-04-2.56263E-03-4.71199E-04
 -1       183-6.15055E-09-4.35573E-03-4.76235E-04
 -1       184-1.14963E-04-2.56263E-03-4.71195E-04
 -1       185-3.02035E-09-2.83331E-03-8.74062E-04
 -1       186-4.41602E-05-2.16240E-03-9.82672E-04
 -1       187-1.63247E-09-1.83178E-03-9.63731E-04
 -1       188 4.41575E-05-2.16240E-03-9.82671E-04
 -1       189-2.08530E-10-7.19924E-04-5.64496E-04
 -1       211 6.51692E-05-3.88892E-03-2.38054E-04
 -1       212 1.20360E-04-2.50279E-03-2.07161E-05
 -1       213-7.00221E-05-3.63598E-03 1.91138E-04
 -1       214 1.20316E-04-2.78953E-03-6.45414E-05
 -1       215-4.67671E-05-1.47553E-03-4.11078E-04
 -1       216-8.84975E-05-1.56694E-03-2.94384E-05
 -1       217 2.06106E-05-1.50893E-03 3.92372E-04
 -1       218-3.98352E-05-6.56524E-04 4.88062E-06
 -1       250-5.49270E-09-4.08215E-03 1.74698E-04
 -1       251 3.03438E-05-2.57221E-03-1.04426E-05
 -1       252-5.54724E-09-3.12388E-03-1.60053E-05
 -1       253-3.03581E-05-2.57221E-03-1.04445E-05
 -1       254-5.94090E-09-4.41344E-03-2.53839E-04
 -1       255-4.02485E-09-2.59925E-03-3.20576E-05
 -1       256-1.27280E-09-1.60750E-03 3.95661E-04
 -1       257-4.11551E-05-1.74936E-03-1.19998E-05
 -1       258-9.90303E-10-1.79045E-03-1.45101E-05
 -1       259 4.11518E-05-1.74936E-03-1.20018E-05
 -1       260-1.34066E-09-1.62257E-03-4.18338E-04
 -1       261-4.40432E-10-7.17082E-04-1.95585E-06
 -3
    1PSTEP                         2           2           1          
  100CL  102 1.00000E-02          81                     1    2           1
 -4  DISP        4    1
 -5  D1          1    2    1    0
 -5  D2          1    2    2    0
 -5  D3          1    2    3    0
 -5  ALL         1    2    0    0    1ALL
 -1         5 0.00000E+00 0.00000E+00 0.00000E+00
 -1         6 0.00000E+00 0.00000E+00 0.00000E+00
 -1         7 0.00000E+00 0.00000E+00 0.00000E+00
 -1         8 0.00000E+00 0.00000E+00 0.00000E+00
 -1        21 0.00000E+00 0.00000E+00 0.00000E+00
 -1        22 0.00000E+00 0.00000E+00 0.00000E+00
 -1        23 0.00000E+00 0.00000E+00 0.00000E+00
 -1        24 0.00000E+00 0.00000E+00 0.00000E+00
 -1        25 0.00000E+00 0.00000E+00 0.00000E+00
 -1        26 0.00000E+00 0.00000E+00 0.00000E+00
 -1        27 0.00000E+00 0.00000E+00 0.00000E+00
 -1        28 0.00000E+00 0.00000E+00 0.00000E+00
 -1        29 0.00000E+00 0.00000E+00 0.00000E+00
 -1        30 0.00000E+00 0.00000E+00 0.00000E+00
 -1        31 0.00000E+00 0.00000E+00 0.00000E+00
 -1        32 0.00000E+00 0.00000E+00 0.00000E+00
 -1        44-1.64840E-04 1.59671E-03-2.33977E-04
 -1        45-4.21457E-05 1.24297E-03-3.77309E-04
 -1        46 4.40794E-05 9.16046E-04-4.32108E-04
 -1        47-5.20402E-05 3.71689E-04-2.84058E-04
 -1        48 5.20437E-05 3.71686E-04-2.84054E-04
 -1        49-4.40559E-05 9.16035E-04-4.32112E-04
 -1        50 4.21352E-05 1.24299E-03-3.77306E-04
 -1        51 1.64826E-04 1.59670E-03-2.33933E-04
 -1        74 1.41979E-04 1.62210E-03 2.34053E-04
 -1        75 2.91806E-05 1.25671E-03 3.77141E-04
 -1        76-3.94537E-05 9.11235E-04 4.32196E-04
 -1        77 5.56775E-05 3.67760E-04 2.84175E-04
 -1        89-1.41998E-04 1.62203E-03 2.34010E-04
 -1        90-2.91908E-05 1.25669E-03 3.77103E-04
 -1        91 3.94649E-05 9.11239E-04 4.32208E-04
 -1        92-5.56739E-05 3.67758E-04 2.84181E-04
 -1        98 0.00000E+00 0.00000E+00 0.00000E+00
 -1        99 0.00000E+00 0.00000E+00 0.00000E+00
 -1       100 0.00000E+00 0.00000E+00 0.00000E+00
 -1       101 0.00000E+00 0.00000E+00 0.00000E+00
 -1       102 0.00000E+00 0.00000E+00 0.00000E+00
 -1       124 1.88737E-05 1.48351E-03-2.20362E-04
 -1       125-3.43813E-08 1.76511E-03-2.31381E-04
 -1       126-1.89030E-05 1.48354E-03-2.20394E-04
 -1       127 1.39686E-08 1.30210E-03-4.18745E-04
 -1       128-6.35119E-06 9.58296E-04-4.63491E-04
 -1       129-6.62095E-09 8.90475E-04-4.72925E-04
 -1       130 6.35360E-06 9.58296E-04-4.63487E-04
 -1       131 3.97971E-09 3.75215E-04-2.75996E-04
 -1       153 1.29850E-04 1.90360E-03-1.03944E-04
 -1       154-3.28158E-06 1.69562E-03 1.57529E-08
 -1       155-1.22620E-04 1.93102E-03 1.04113E-04
 -1       156 7.39163E-07 1.40665E-03 1.57574E-06
 -1       157-2.60942E-05 7.95962E-04-1.86095E-04
 -1       158 6.97776E-07 8.10100E-04 5.75986E-07
 -1       159 2.44175E-05 7.90336E-04 1.86034E-04
 -1       160-3.04390E-07 3.08091E-04-3.11996E-08
 -1       182-7.71983E-06 1.47454E-03 2.20772E-04
 -1       183-4.18961E-09 1.77595E-03 2.31360E-04
 -1       184 7.71367E-06 1.47452E-03 2.20769E-04
 -1       185 5.14706E-10 1.30270E-03 4.16093E-04
 -1       186-6.72709E-07 9.60803E-04 4.63764E-04
 -1       187 6.89304E-10 8.88639E-04 4.72149E-04
 -1       188 6.76416E-07 9.60803E-04 4.63764E-04
 -1       189 1.76955E-09 3.75461E-04 2.76077E-04
 -1       211 1.22617E-04 1.93095E-03 1.04133E-04
 -1       212 3.25770E-06 1.69558E-03-1.35058E-08
 -1       213-1.29857E-04 1.90359E-03-1.03930E-04
 -1       214-7.11562E-07 1.40664E-03 1.57564E-06
 -1       215-2.44205E-05 7.90339E-04 1.86026E-04
 -1       216-7.07216E-07 8.10095E-04 5.75263E-07
 -1       217 2.60993E-05 7.95951E-04-1.86099E-04
 -1       218 3.08413E-07 3.08090E-04-3.79590E-08
 -1       250-2.93418E-09 1.91925E-03-1.02878E-04
 -1       251-9.59782E-06 1.20948E-03-2.71540E-07
 -1       252 4.22403E-08 1.54134E-03 1.34603E-07
 -1       253 9.62473E-06 1.20951E-03-2.20494E-07
 -1       254 1.90772E-08 1.90172E-03 1.03560E-04
 -1       255-2.55935E-09 1.37525E-03 1.79468E-07
 -1       256 4.42716E-09 7.81209E-04-2.07283E-04
 -1       257 2.15295E-06 9.14168E-04 4.79832E-08
 -1       258 1.25130E-08 8.12314E-04 6.71393E-08
 -1       259-2.14355E-06 9.14170E-04 3.97195E-08
 -1       260 6.62816E-09 7.85331E-04 2.07477E-04
 -1       261-1.70340E-09 3.48563E-04-1.29518E-08
 -3
    1PSTEP                         3           3           1          
  100CL  103 1.50000E-02          81                     1    3           1
 -4  DISP        4    1
 -5  D1          1    2    1    0
 -5  D2          1    2    2    0
 -5  D3          1    2    3    0
 -5  ALL         1    2    0    0    1ALL
 -1         5 0.00000E+00 0.00000E+00 0.00000E+00
 -1         6 0.00000E+00 0.00000E+00 0.00000E+00
 -1         7 0.00000E+00 0.00000E+00 0.00000E+00
 -1         8 0.00000E+00 0.00000E+00 0.00000E+00
 -1        21 0.00000E+00 0.00000E+00 0.00000E+00
 -1        22 0.00000E+00 0.00000E+00 0.00000E+00
 -1        23 0.00000E+00 0.00000E+00 0.00000E+00
 -1        24 0.00000E+00 0.00000E+00 0.00000E+00
 -1        25 0.00000E+00 0.00000E+00 0.00000E+00
 -1        26 0.00000E+00 0.00000E+00 0.00000E+00
 -1        27 0.00000E+00 0.00000E+00 0.00000E+00
 -1        28 0.00000E+00 0.00000E+00 0.00000E+00
 -1        29 0.00000E+00 0.00000E+00 0.00000E+00
 -1        30 0.00000E+00 0.00000E+00 0.00000E+00
 -1        31 0.00000E+00 0.00000E+00 0.00000E+00
 -1        32 0.00000E+00 0.00000E+00 0.00000E+00
 -1        44 1.25395E-04-1.27037E-03 1.85413E-04
 -1        45 3.00357E-05-9.87790E-04 2.98945E-04
 -1        46-3.38749E-05-7.24924E-04 3.42136E-04
 -1        47 4.21114E-05-2.93820E-04 2.25158E-04
 -1        48-4.20945E-05-2.93830E-04 2.25159E-04
 -1        49 3.39190E-05-7.24957E-04 3.42128E-04
 -1        50-3.00052E-05-9.87791E-04 2.98922E-04
 -1        51-1.25321E-04-1.27042E-03 1.85430E-04
 -1        74-1.18093E-04-1.27762E-03-1.85485E-04
 -1        75-2.59054E-05-9.91823E-04-2.99009E-04
 -1        76 3.22031E-05-7.23317E-04-3.42137E-04
 -1        77-4.32548E-05-2.92680E-04-2.25146E-04
 -1        89 1.18019E-04-1.27768E-03-1.85434E-04
 -1        90 2.58910E-05-9.91884E-04-2.99020E-04
 -1        91-3.22047E-05-7.23321E-04-3.42159E-04
 -1        92 4.32523E-05-2.92689E-04-2.25152E-04
 -1        98 0.00000E+00 0.00000E+00 0.00000E+00
 -1        99 0.00000E+00 0.00000E+00 0.00000E+00
 -1       100 0.00000E+00 0.00000E+00 0.00000E+00
 -1       101 0.00000E+00 0.00000E+00 0.00000E+00
 -1       102 0.00000E+00 0.00000E+00 0.00000E+00
 -1       124-8.03511E-06-1.17374E-03 1.74778E-04
 -1       125 1.51945E-08-1.40001E-03 1.83405E-04
 -1       126 8.09968E-06-1.17368E-03 1.74726E-04
 -1       127 3.74981E-08-1.03172E-03 3.30816E-04
 -1       128 3.59422E-06-7.59518E-04 3.67212E-04
 -1       129 5.61314E-09-7.04793E-04 3.74504E-04
 -1       130-3.57006E-06-7.59508E-04 3.67224E-04
 -1       131 8.81662E-09-2.97405E-04 2.18682E-04
 -1       153-1.01872E-04-1.51700E-03 8.24129E-05
 -1       154 1.41683E-06-1.34743E-03 1.80199E-08
 -1       155 9.93461E-05-1.52387E-03-8.23911E-05
 -1       156-6.41360E-08-1.11478E-03-4.21856E-07
 -1       157 2.05240E-05-6.29330E-04 1.47328E-04
 -1       158-2.64141E-07-6.41911E-04-1.56848E-07
 -1       159-1.99622E-05-6.27821E-04-1.47285E-04
 -1       160 3.03948E-08-2.43868E-04-2.49062E-09
 -1       182-1.29922E-06-1.17128E-03-1.74755E-04
 -1       183-3.23942E-08-1.40251E-03-1.83456E-04
 -1       184 1.24476E-06-1.17129E-03-1.74766E-04
 -1       185-4.11724E-09-1.03147E-03-3.29974E-04
 -1       186 2.05194E-06-7.60057E-04-3.67278E-04
 -1       187-8.36856E-09-7.04351E-04-3.74184E-04
 -1       188-2.06454E-06-7.60066E-04-3.67284E-04
 -1       189-1.13414E-09-2.97511E-04-2.18667E-04
 -1       211-9.93434E-05-1.52395E-03-8.23985E-05
 -1       212-1.37041E-06-1.34748E-03-3.45855E-08
 -1       213 1.01953E-04-1.51703E-03 8.23850E-05
 -1       214 1.05351E-07-1.11481E-03-4.33726E-07
 -1       215 1.99605E-05-6.27828E-04-1.47296E-04
 -1       216 2.68207E-07-6.41929E-04-1.64983E-07
 -1       217-2.05034E-05-6.29359E-04 1.47320E-04
 -1       218-2.51777E-08-2.43878E-04-1.52035E-08
 -1       250 3.46699E-08-1.51444E-03 8.17514E-05
 -1       251 2.15877E-06-9.57573E-04-3.45330E-09
 -1       252 6.44891E-08-1.22205E-03-3.74071E-08
 -1       253-2.08076E-06-9.57548E-04 3.76013E-08
 -1       254 1.14674E-08-1.51013E-03-8.19008E-05
 -1       255 9.30277E-09-1.09065E-03 1.63786E-09
 -1       256 1.22352E-08-6.19794E-04 1.64341E-04
 -1       257-4.75986E-07-7.24635E-04 1.37003E-08
 -1       258 1.57213E-08-6.42650E-04 4.03752E-10
 -1       259 4.96350E-07-7.24626E-04 1.42260E-08
 -1       260 4.96229E-09-6.20793E-04-1.64370E-04
 -1       261-1.46464E-09-2.75938E-04-1.78079E-09
 -3
    1PSTEP                         4           4           1          
  100CL  104 2.00000E-02          81                     1    4           1
 -4  DISP        4    1
 -5  D1          1    2    1    0
 -5  D2          1    2    2    0
 -5  D3          1    2    3    0
 -5  ALL         1    2    0    0    1ALL
 -1         5 0.00000E+00 0.00000E+00 0.00000E+00
 -1         6 0.00000E+00 0.00000E+00 0.00000E+00
 -1         7 0.00000E+00 0.00000E+00 0.00000E+00
 -1         8 0.00000E+00 0.00000E+00 0.00000E+00
 -1        21 0.00000E+00 0.00000E+00 0.00000E+00
 -1        22 0.00000E+00 0.00000E+00 0.00000E+00
 -1        23 0.00000E+00 0.00000E+00 0.00000E+00
 -1        24 0.00000E+00 0.00000E+00 0.00000E+00
 -1        25 0.00000E+00 0.00000E+00 0.00000E+00
 -1        26 0.00000E+00 0.00000E+00 0.00000E+00
 -1        27 0.00000E+00 0.00000E+00 0.00000E+00
 -1        28 0.00000E+00 0.00000E+00 0.00000E+00
 -1        29 0.00000E+00 0.00000E+00 0.00000E+00
 -1        30 0.00000E+00 0.00000E+00 0.00000E+00
 -1        31 0.00000E+00 0.00000E+00 0.00000E+00
 -1        32 0.00000E+00 0.00000E+00 0.00000E+00
 -1        44-9.68943E-05 9.86099E-04-1.43959E-04
 -1        45-2.31368E-05 7.66640E-04-2.32054E-04
 -1        46 2.62859E-05 5.62858E-04-2.65590E-04
 -1        47-3.27096E-05 2.28083E-04-1.74773E-04
 -1        48 3.27063E-05 2.28086E-04-1.74772E-04
 -1        49-2.62816E-05 5.62863E-04-2.65591E-04
 -1        50 2.31289E-05 7.66647E-04-2.32060E-04
 -1        51 9.69403E-05 9.86083E-04-1.43983E-04
 -1        74 9.24675E-05 9.90411E-04 1.43967E-04
 -1        75 2.07063E-05 7.69099E-04 2.32025E-04
 -1        76-2.53190E-05 5.61867E-04 2.65597E-04
 -1        77 3.33965E-05 2.27402E-04 1.74780E-04
 -1        89-9.24293E-05 9.90436E-04 1.43953E-04
 -1        90-2.06935E-05 7.69109E-04 2.32019E-04
 -1        91 2.53251E-05 5.61869E-04 2.65598E-04
 -1        92-3.33945E-05 2.27403E-04 1.74780E-04
 -1        98 0.00000E+00 0.00000E+00 0.00000E+00
 -1        99 0.00000E+00 0.00000E+00 0.00000E+00
 -1       100 0.00000E+00 0.00000E+00 0.00000E+00
 -1       101 0.00000E+00 0.00000E+00 0.00000E+00
 -1       102 0.00000E+00 0.00000E+00 0.00000E+00
 -1       124 5.50807E-06 9.10976E-04-1.35669E-04
 -1       125-1.29760E-09 1.08659E-03-1.42397E-04
 -1       126-5.49148E-06 9.10981E-04-1.35674E-04
 -1       127 3.21509E-09 8.00808E-04-2.56726E-04
 -1       128-2.63651E-06 5.89551E-04-2.85024E-04
 -1       129-4.50633E-09 5.46968E-04-2.90632E-04
 -1       130 2.63512E-06 5.89550E-04-2.85019E-04
 -1       131-7.99160E-10 2.30872E-04-1.69739E-04
 -1       153 7.88009E-05 1.17801E-03-6.39683E-05
 -1       154-7.95029E-07 1.04518E-03-2.04059E-08
 -1       155-7.72946E-05 1.18217E-03 6.39626E-05
 -1       156 4.79165E-08 8.65035E-04 2.64036E-07
 -1       157-1.58087E-05 4.88451E-04-1.14351E-04
 -1       158 1.75421E-07 4.98416E-04 9.43385E-08
 -1       159 1.54869E-05 4.87522E-04 1.14320E-04
 -1       160-1.93296E-08 1.89395E-04 4.24826E-09
 -1       182 1.20655E-06 9.09505E-04 1.35698E-04
 -1       183 1.61731E-08 1.08817E-03 1.42386E-04
 -1       184-1.17492E-06 9.09510E-04 1.35705E-04
 -1       185 6.80650E-09 8.00646E-04 2.56223E-04
 -1       186-1.69774E-06 5.89869E-04 2.85046E-04
 -1       187 3.83871E-09 5.46683E-04 2.90444E-04
 -1       188 1.70532E-06 5.89872E-04 2.85044E-04
 -1       189 9.08855E-10 2.30922E-04 1.69734E-04
 -1       211 7.73043E-05 1.18219E-03 6.39626E-05
 -1       212 7.85359E-07 1.04519E-03-1.07025E-08
 -1       213-7.87848E-05 1.17801E-03-6.39790E-05
 -1       214-3.90790E-08 8.65039E-04 2.61712E-07
 -1       215-1.54832E-05 4.87525E-04 1.14317E-04
 -1       216-1.76485E-07 4.98422E-04 9.02311E-08
 -1       217 1.58109E-05 4.88457E-04-1.14352E-04
 -1       218 2.05178E-08 1.89397E-04 2.37123E-09
 -1       250-1.05898E-09 1.17437E-03-6.34915E-05
 -1       251-1.35586E-06 7.43462E-04-5.59215E-08
 -1       252-5.82083E-10 9.48114E-04-3.25940E-09
 -1       253 1.35344E-06 7.43456E-04-4.96012E-08
 -1       254 8.88070E-09 1.17170E-03 6.35541E-05
 -1       255 1.05379E-09 8.46400E-04-4.60140E-09
 -1       256-1.44961E-09 4.81283E-04-1.27567E-04
 -1       257 2.96602E-07 5.62385E-04-3.66941E-09
 -1       258 1.65624E-09 4.98905E-04 2.59997E-09
 -1       259-2.96173E-07 5.62382E-04-4.18932E-09
 -1       260 2.52863E-09 4.81898E-04 1.27585E-04
 -1       261 3.84930E-10 2.14218E-04-3.04938E-09
 -3
    1PSTEP                         5           5           1          
  100CL  105 2.50000E-02          81                     1    5           1
 -4  DISP        4    1
 -5  D1          1    2    1    0
 -5  D2          1    2    2    0
 -5  D3          1    2    3    0
 -5  ALL         1    2    0    0    1ALL
 -1         5 0.00000E+00 0.00000E+00 0.00000E+00
 -1         6 0.00000E+00 0.00000E+00 0.00000E+00
 -1         7 0.00000E+00 0.00000E+00 0.00000E+00
 -1         8 0.00000E+00 0.00000E+00 0.00000E+00
 -1        21 0.00000E+00 0.00000E+00 0.00000E+00
 -1        22 0.00000E+00 0.00000E+00 0.00000E+00
 -1        23 0.00000E+00 0.00000E+00 0.00000E+00
 -1        24 0.00000E+00 0.00000E+00 0.00000E+00
 -1        25 0.00000E+00 0.00000E+00 0.00000E+00
 -1        26 0.00000E+00 0.00000E+00 0.00000E+00
 -1        27 0.00000E+00 0.00000E+00 0.00000E+00
 -1        28 0.00000E+00 0.00000E+00 0.00000E+00
 -1        29 0.00000E+00 0.00000E+00 0.00000E+00
 -1        30 0.00000E+00 0.00000E+00 0.00000E+00
 -1        31 0.00000E+00 0.00000E+00 0.00000E+00
 -1        32 0.00000E+00 0.00000E+00 0.00000E+00
 -1        44 7.33446E-05-7.44093E-04 1.08590E-04
 -1        45 1.76124E-05-5.78705E-04 1.74972E-04
 -1        46-1.97496E-05-4.24380E-04 2.00377E-04
 -1        47 2.46776E-05-1.72054E-04 1.31836E-04
 -1        48-2.46709E-05-1.72061E-04 1.31860E-04
 -1        49 1.97943E-05-4.24399E-04 2.00405E-04
 -1        50-1.76725E-05-5.78691E-04 1.74947E-04
 -1        51-7.33641E-05-7.44034E-04 1.08584E-04
 -1        74-6.86690E-05-7.48672E-04-1.08577E-04
 -1        75-1.50051E-05-5.81272E-04-1.74967E-04
 -1        76 1.88062E-05-4.23486E-04-2.00411E-04
 -1        77-2.54066E-05-1.71336E-04-1.31850E-04
 -1        89 6.85244E-05-7.48809E-04-1.08550E-04
 -1        90 1.49607E-05-5.81314E-04-1.74986E-04
 -1        91-1.87975E-05-4.23476E-04-2.00411E-04
 -1        92 2.54072E-05-1.71335E-04-1.31844E-04
 -1        98 0.00000E+00 0.00000E+00 0.00000E+00
 -1        99 0.00000E+00 0.00000E+00 0.00000E+00
 -1       100 0.00000E+00 0.00000E+00 0.00000E+00
 -1       101 0.00000E+00 0.00000E+00 0.00000E+00
 -1       102 0.00000E+00 0.00000E+00 0.00000E+00
 -1       124-5.47399E-06-6.87313E-04 1.02311E-04
 -1       125-7.43459E-08-8.20008E-04 1.07347E-04
 -1       126 5.41269E-06-6.87284E-04 1.02223E-04
 -1       127 2.03607E-08-6.04075E-04 1.93813E-04
 -1       128 2.22150E-06-4.44929E-04 2.15047E-04
 -1       129-1.80679E-08-4.13054E-04 2.19297E-04
 -1       130-2.22345E-06-4.44930E-04 2.15053E-04
 -1       131 7.40880E-09-1.74262E-04 1.28102E-04
 -1       153-5.94469E-05-8.86874E-04 4.82185E-05
 -1       154 8.61408E-07-7.88088E-04 3.33766E-08
 -1       155 5.77599E-05-8.92116E-04-4.82403E-05
 -1       156-3.47699E-08-6.53051E-04-2.83828E-07
 -1       157 1.19500E-05-3.68683E-04 8.63187E-05
 -1       158-2.28540E-07-3.75806E-04-1.04317E-07
 -1       159-1.16078E-05-3.67577E-04-8.62907E-05
 -1       160 2.24029E-08-1.42895E-04 3.71146E-09
 -1       182-2.13089E-07-6.85717E-04-1.02263E-04
 -1       183-6.41943E-08-8.21486E-04-1.07302E-04
 -1       184 1.02195E-07-6.85742E-04-1.02292E-04
 -1       185-1.58192E-08-6.03921E-04-1.93224E-04
 -1       186 1.08886E-06-4.45252E-04-2.15083E-04
 -1       187-9.06898E-09-4.12649E-04-2.19092E-04
 -1       188-1.10000E-06-4.45257E-04-2.15077E-04
 -1       189 2.47838E-09-1.74336E-04-1.28106E-04
 -1       211-5.78330E-05-8.92238E-04-4.82114E-05
 -1       212-9.28475E-07-7.88130E-04-1.31127E-08
 -1       213 5.94398E-05-8.86828E-04 4.82730E-05
 -1       214 6.26008E-08-6.53058E-04-2.69754E-07
 -1       215 1.15903E-05-3.67568E-04-8.62946E-05
 -1       216 1.97751E-07-3.75812E-04-9.35450E-08
 -1       217-1.19503E-05-3.68703E-04 8.63197E-05
 -1       218-1.94251E-08-1.42897E-04-3.48432E-09
 -1       250-1.07597E-08-8.88402E-04 4.78165E-05
 -1       251 1.82076E-06-5.60859E-04 6.04354E-10
 -1       252 7.32033E-08-7.16023E-04-3.58391E-08
 -1       253-1.79220E-06-5.60840E-04 8.15695E-08
 -1       254-1.10995E-09-8.84637E-04-4.79077E-05
 -1       255-1.49383E-08-6.38481E-04-7.17095E-09
 -1       256 2.19734E-09-3.63027E-04 9.62000E-05
 -1       257-3.86015E-07-4.24410E-04 1.68753E-08
 -1       258 1.78370E-08-3.76750E-04 5.99137E-09
 -1       259 3.92911E-07-4.24407E-04-2.28263E-09
 -1       260 5.38260E-09-3.63819E-04-9.62089E-05
 -1       261-5.60335E-09-1.61702E-04 3.29133E-10
 -3
    1PSTEP                         6           6           1          
  100CL  106 3.00000E-02          81                     1    6           1
 -4  DISP        4    1
 -5  D1          1    2    1    0
 -5  D2          1    2    2    0
 -5  D3          1    2    3    0
 -5  ALL         1    2    0    0    1ALL
 -1         5 0.00000E+00 0.00000E+00 0.00000E+00
 -1         6 0.00000E+00 0.00000E+00 0.00000E+00
 -1         7 0.00000E+00 0.00000E+00 0.00000E+00
 -1         8 0.00000E+00 0.00000E+00 0.00000E+00
 -1        21 0.00000E+00 0.00000E+00 0.00000E+00
 -1        22 0.00000E+00 0.00000E+00 0.00000E+00
 -1        23 0.00000E+00 0.00000E+00 0.00000E+00
 -1        24 0.00000E+00 0.00000E+00 0.00000E+00
 -1        25 0.00000E+00 0.00000E+00 0.00000E+00
 -1        26 0.00000E+00 0.00000E+00 0.00000E+00
 -1        27 0.00000E+00 0.00000E+00 0.00000E+00
 -1        28 0.00000E+00 0.00000E+00 0.00000E+00
 -1        29 0.00000E+00 0.00000E+00 0.00000E+00
 -1        30 0.00000E+00 0.00000E+00 0.00000E+00
 -1        31 0.00000E+00 0.00000E+00 0.00000E+00
 -1        32 0.00000E+00 0.00000E+00 0.00000E+00
 -1        44-5.30346E-05 5.39583E-04-7.87707E-05
 -1        45-1.25884E-05 4.19509E-04-1.27028E-04
 -1        46 1.44241E-05 3.08173E-04-1.45313E-04
 -1        47-1.78925E-05 1.24884E-04-9.56657E-05