    1C
    1UUSER                                                              
    1UDATE              15.july.2018                                    
    1UTIME              17:41:58                                        
    1UHOST                                                              
    1UPGM               CalculiX                                        
    1UVERSION           Version 2.13                             
    1UCOMPILETIME       jue jun 14 00:40:39 CEST 2018                    
    1UDIR                                                               
    1UDBN                                                               
    1UMAT    1EL                                                        
    2C                           201                                     1
 -1         1 0.00000E+00 0.00000E+00 0.00000E+00
 -1         2 1.00000E+00 0.00000E+00 0.00000E+00
 -1         3 1.00000E+00 1.00000E+00 0.00000E+00
 -1         4 0.00000E+00 1.00000E+00 0.00000E+00
 -1         9 2.50000E-01 0.00000E+00 0.00000E+00
 -1        10 5.00000E-01 0.00000E+00 0.00000E+00
 -1        11 7.50000E-01 0.00000E+00 0.00000E+00
 -1        12 1.00000E+00 2.50000E-01 0.00000E+00
 -1        13 1.00000E+00 5.00000E-01 0.00000E+00
 -1        14 1.00000E+00 7.50000E-01 0.00000E+00
 -1        15 7.50000E-01 1.00000E+00 0.00000E+00
 -1        16 5.00000E-01 1.00000E+00 0.00000E+00
 -1        17 2.50000E-01 1.00000E+00 0.00000E+00
 -1        18 0.00000E+00 7.50000E-01 0.00000E+00
 -1        19 0.00000E+00 5.00000E-01 0.00000E+00
 -1        20 0.00000E+00 2.50000E-01 0.00000E+00
 -1        33 1.00000E+00 0.00000E+00 5.00000E-01
 -1        34 1.00000E+00 0.00000E+00 1.00000E+00
 -1        35 1.00000E+00 0.00000E+00 1.50000E+00
 -1        36 1.00000E+00 0.00000E+00 2.00000E+00
 -1        37 1.00000E+00 0.00000E+00 2.50000E+00
 -1        38 1.00000E+00 0.00000E+00 3.00000E+00
 -1        39 1.00000E+00 0.00000E+00 3.50000E+00
 -1        40 1.00000E+00 0.00000E+00 4.00000E+00
 -1        41 1.00000E+00 0.00000E+00 4.50000E+00
 -1        42 1.00000E+00 0.00000E+00 5.00000E+00
 -1        43 1.00000E+00 0.00000E+00 5.50000E+00
 -1        44 1.00000E+00 0.00000E+00 6.00000E+00
 -1        51 0.00000E+00 0.00000E+00 6.00000E+00
 -1        52 0.00000E+00 0.00000E+00 5.50000E+00
 -1        53 0.00000E+00 0.00000E+00 5.00000E+00
 -1        54 0.00000E+00 0.00000E+00 4.50000E+00
 -1        55 0.00000E+00 0.00000E+00 4.00000E+00
 -1        56 0.00000E+00 0.00000E+00 3.50000E+00
 -1        57 0.00000E+00 0.00000E+00 3.00000E+00
 -1        58 0.00000E+00 0.00000E+00 2.50000E+00
 -1        59 0.00000E+00 0.00000E+00 2.00000E+00
 -1        60 0.00000E+00 0.00000E+00 1.50000E+00
 -1        61 0.00000E+00 0.00000E+00 1.00000E+00
 -1        62 0.00000E+00 0.00000E+00 5.00000E-01
 -1        63 1.00000E+00 1.00000E+00 5.00000E-01
 -1        64 1.00000E+00 1.00000E+00 1.00000E+00
 -1        65 1.00000E+00 1.00000E+00 1.50000E+00
 -1        66 1.00000E+00 1.00000E+00 2.00000E+00
 -1        67 1.00000E+00 1.00000E+00 2.50000E+00
 -1        68 1.00000E+00 1.00000E+00 3.00000E+00
 -1        69 1.00000E+00 1.00000E+00 3.50000E+00
 -1        70 1.00000E+00 1.00000E+00 4.00000E+00
 -1        71 1.00000E+00 1.00000E+00 4.50000E+00
 -1        72 1.00000E+00 1.00000E+00 5.00000E+00
 -1        73 1.00000E+00 1.00000E+00 5.50000E+00
 -1        74 1.00000E+00 1.00000E+00 6.00000E+00
 -1        78 0.00000E+00 1.00000E+00 5.00000E-01
 -1        79 0.00000E+00 1.00000E+00 1.00000E+00
 -1        80 0.00000E+00 1.00000E+00 1.50000E+00
 -1        81 0.00000E+00 1.00000E+00 2.00000E+00
 -1        82 0.00000E+00 1.00000E+00 2.50000E+00
 -1        83 0.00000E+00 1.00000E+00 3.00000E+00
 -1        84 0.00000E+00 1.00000E+00 3.50000E+00
 -1        85 0.00000E+00 1.00000E+00 4.00000E+00
 -1        86 0.00000E+00 1.00000E+00 4.50000E+00
 -1        87 0.00000E+00 1.00000E+00 5.00000E+00
 -1        88 0.00000E+00 1.00000E+00 5.50000E+00
 -1        89 0.00000E+00 1.00000E+00 6.00000E+00
 -1        93 5.00000E-01 2.50000E-01 0.00000E+00
 -1        94 2.50000E-01 5.00000E-01 0.00000E+00
 -1        95 5.00000E-01 5.00000E-01 0.00000E+00
 -1        96 7.50000E-01 5.00000E-01 0.00000E+00
 -1        97 5.00000E-01 7.50000E-01 0.00000E+00
 -1       103 5.00000E-01 0.00000E+00 5.00000E-01
 -1       104 2.50000E-01 0.00000E+00 1.00000E+00
 -1       105 5.00000E-01 0.00000E+00 1.00000E+00
 -1       106 7.50000E-01 0.00000E+00 1.00000E+00
 -1       107 5.00000E-01 0.00000E+00 1.50000E+00
 -1       108 2.50000E-01 0.00000E+00 2.00000E+00
 -1       109 5.00000E-01 0.00000E+00 2.00000E+00
 -1       110 7.50000E-01 0.00000E+00 2.00000E+00
 -1       111 5.00000E-01 0.00000E+00 2.50000E+00
 -1       112 2.50000E-01 0.00000E+00 3.00000E+00
 -1       113 5.00000E-01 0.00000E+00 3.00000E+00
 -1       114 7.50000E-01 0.00000E+00 3.00000E+00
 -1       115 5.00000E-01 0.00000E+00 3.50000E+00
 -1       116 2.50000E-01 0.00000E+00 4.00000E+00
 -1       117 5.00000E-01 0.00000E+00 4.00000E+00
 -1       118 7.50000E-01 0.00000E+00 4.00000E+00
 -1       119 5.00000E-01 0.00000E+00 4.50000E+00
 -1       120 2.50000E-01 0.00000E+00 5.00000E+00
 -1       121 5.00000E-01 0.00000E+00 5.00000E+00
 -1       122 7.50000E-01 0.00000E+00 5.00000E+00
 -1       123 5.00000E-01 0.00000E+00 5.50000E+00
 -1       124 2.50000E-01 0.00000E+00 6.00000E+00
 -1       125 5.00000E-01 0.00000E+00 6.00000E+00
 -1       126 7.50000E-01 0.00000E+00 6.00000E+00
 -1       132 1.00000E+00 5.00000E-01 5.00000E-01
 -1       133 1.00000E+00 2.50000E-01 1.00000E+00
 -1       134 1.00000E+00 5.00000E-01 1.00000E+00
 -1       135 1.00000E+00 7.50000E-01 1.00000E+00
 -1       136 1.00000E+00 5.00000E-01 1.50000E+00
 -1       137 1.00000E+00 2.50000E-01 2.00000E+00
 -1       138 1.00000E+00 5.00000E-01 2.00000E+00
 -1       139 1.00000E+00 7.50000E-01 2.00000E+00
 -1       140 1.00000E+00 5.00000E-01 2.50000E+00
 -1       141 1.00000E+00 2.50000E-01 3.00000E+00
 -1       142 1.00000E+00 5.00000E-01 3.00000E+00
 -1       143 1.00000E+00 7.50000E-01 3.00000E+00
 -1       144 1.00000E+00 5.00000E-01 3.50000E+00
 -1       145 1.00000E+00 2.50000E-01 4.00000E+00
 -1       146 1.00000E+00 5.00000E-01 4.00000E+00
 -1       147 1.00000E+00 7.50000E-01 4.00000E+00
 -1       148 1.00000E+00 5.00000E-01 4.50000E+00
 -1       149 1.00000E+00 2.50000E-01 5.00000E+00
 -1       150 1.00000E+00 5.00000E-01 5.00000E+00
 -1       151 1.00000E+00 7.50000E-01 5.00000E+00
 -1       152 1.00000E+00 5.00000E-01 5.50000E+00
 -1       153 1.00000E+00 2.50000E-01 6.00000E+00
 -1       154 1.00000E+00 5.00000E-01 6.00000E+00
 -1       155 1.00000E+00 7.50000E-01 6.00000E+00
 -1       161 5.00000E-01 1.00000E+00 5.00000E-01
 -1       162 7.50000E-01 1.00000E+00 1.00000E+00
 -1       163 5.00000E-01 1.00000E+00 1.00000E+00
 -1       164 2.50000E-01 1.00000E+00 1.00000E+00
 -1       165 5.00000E-01 1.00000E+00 1.50000E+00
 -1       166 7.50000E-01 1.00000E+00 2.00000E+00
 -1       167 5.00000E-01 1.00000E+00 2.00000E+00
 -1       168 2.50000E-01 1.00000E+00 2.00000E+00
 -1       169 5.00000E-01 1.00000E+00 2.50000E+00
 -1       170 7.50000E-01 1.00000E+00 3.00000E+00
 -1       171 5.00000E-01 1.00000E+00 3.00000E+00
 -1       172 2.50000E-01 1.00000E+00 3.00000E+00
 -1       173 5.00000E-01 1.00000E+00 3.50000E+00
 -1       174 7.50000E-01 1.00000E+00 4.00000E+00
 -1       175 5.00000E-01 1.00000E+00 4.00000E+00
 -1       176 2.50000E-01 1.00000E+00 4.00000E+00
 -1       177 5.00000E-01 1.00000E+00 4.50000E+00
 -1       178 7.50000E-01 1.00000E+00 5.00000E+00
 -1       179 5.00000E-01 1.00000E+00 5.00000E+00
 -1       180 2.50000E-01 1.00000E+00 5.00000E+00
 -1       181 5.00000E-01 1.00000E+00 5.50000E+00
 -1       182 7.50000E-01 1.00000E+00 6.00000E+00
 -1       183 5.00000E-01 1.00000E+00 6.00000E+00
 -1       184 2.50000E-01 1.00000E+00 6.00000E+00
 -1       190 0.00000E+00 5.00000E-01 5.00000E-01
 -1       191 0.00000E+00 7.50000E-01 1.00000E+00
 -1       192 0.00000E+00 5.00000E-01 1.00000E+00
 -1       193 0.00000E+00 2.50000E-01 1.00000E+00
 -1       194 0.00000E+00 5.00000E-01 1.50000E+00
 -1       195 0.00000E+00 7.50000E-01 2.00000E+00
 -1       196 0.00000E+00 5.00000E-01 2.00000E+00
 -1       197 0.00000E+00 2.50000E-01 2.00000E+00
 -1       198 0.00000E+00 5.00000E-01 2.50000E+00
 -1       199 0.00000E+00 7.50000E-01 3.00000E+00
 -1       200 0.00000E+00 5.00000E-01 3.00000E+00
 -1       201 0.00000E+00 2.50000E-01 3.00000E+00
 -1       202 0.00000E+00 5.00000E-01 3.50000E+00
 -1       203 0.00000E+00 7.50000E-01 4.00000E+00
 -1       204 0.00000E+00 5.00000E-01 4.00000E+00
 -1       205 0.00000E+00 2.50000E-01 4.00000E+00
 -1       206 0.00000E+00 5.00000E-01 4.50000E+00
 -1       207 0.00000E+00 7.50000E-01 5.00000E+00
 -1       208 0.00000E+00 5.00000E-01 5.00000E+00
 -1       209 0.00000E+00 2.50000E-01 5.00000E+00
 -1       210 0.00000E+00 5.00000E-01 5.50000E+00
 -1       211 0.00000E+00 7.50000E-01 6.00000E+00
 -1       212 0.00000E+00 5.00000E-01 6.00000E+00
 -1       213 0.00000E+00 2.50000E-01 6.00000E+00
 -1       219 5.00000E-01 5.00000E-01 5.00000E-01
 -1       220 5.00000E-01 2.50000E-01 1.00000E+00
 -1       221 2.50000E-01 5.00000E-01 1.00000E+00
 -1       222 5.00000E-01 5.00000E-01 1.00000E+00
 -1       223 7.50000E-01 5.00000E-01 1.00000E+00
 -1       224 5.00000E-01 7.50000E-01 1.00000E+00
 -1       225 5.00000E-01 5.00000E-01 1.50000E+00
 -1       226 5.00000E-01 2.50000E-01 2.00000E+00
 -1       227 2.50000E-01 5.00000E-01 2.00000E+00
 -1       228 5.00000E-01 5.00000E-01 2.00000E+00
 -1       229 7.50000E-01 5.00000E-01 2.00000E+00
 -1       230 5.00000E-01 7.50000E-01 2.00000E+00
 -1       231 5.00000E-01 5.00000E-01 2.50000E+00
 -1       232 5.00000E-01 2.50000E-01 3.00000E+00
 -1       233 2.50000E-01 5.00000E-01 3.00000E+00
 -1       234 5.00000E-01 5.00000E-01 3.00000E+00
 -1       235 7.50000E-01 5.00000E-01 3.00000E+00
 -1       236 5.00000E-01 7.50000E-01 3.00000E+00
 -1       237 5.00000E-01 5.00000E-01 3.50000E+00
 -1       238 5.00000E-01 2.50000E-01 4.00000E+00
 -1       239 2.50000E-01 5.00000E-01 4.00000E+00
 -1       240 5.00000E-01 5.00000E-01 4.00000E+00
 -1       241 7.50000E-01 5.00000E-01 4.00000E+00
 -1       242 5.00000E-01 7.50000E-01 4.00000E+00
 -1       243 5.00000E-01 5.00000E-01 4.50000E+00
 -1       244 5.00000E-01 2.50000E-01 5.00000E+00
 -1       245 2.50000E-01 5.00000E-01 5.00000E+00
 -1       246 5.00000E-01 5.00000E-01 5.00000E+00
 -1       247 7.50000E-01 5.00000E-01 5.00000E+00
 -1       248 5.00000E-01 7.50000E-01 5.00000E+00
 -1       249 5.00000E-01 5.00000E-01 5.50000E+00
 -1       250 5.00000E-01 2.50000E-01 6.00000E+00
 -1       251 2.50000E-01 5.00000E-01 6.00000E+00
 -1       252 5.00000E-01 5.00000E-01 6.00000E+00
 -1       253 7.50000E-01 5.00000E-01 6.00000E+00
 -1       254 5.00000E-01 7.50000E-01 6.00000E+00
 -3
    3C                            24                                     1
 -1         1    4    0    1
 -2         1        10        95        19        61       105       222       192         9        93
 -2        94        20        62       103       219       190       104       220       221       193
 -1         2    4    0    1
 -2        10         2        13        95       105        34       134       222        11        12
 -2        96        93       103        33       132       219       106       133       223       220
 -1         3    4    0    1
 -2        19        95        16         4       192       222       163        79        94        97
 -2        17        18       190       219       161        78       221       224       164       191
 -1         4    4    0    1
 -2        95        13         3        16       222       134        64       163        96        14
 -2        15        97       219       132        63       161       223       135       162       224
 -1         5    4    0    1
 -2        61       105       222       192        59       109       228       196       104       220
 -2       221       193        60       107       225       194       108       226       227       197
 -1         6    4    0    1
 -2       105        34       134       222       109        36       138       228       106       133
 -2       223       220       107        35       136       225       110       137       229       226
 -1         7    4    0    1
 -2       192       222       163        79       196       228       167        81       221       224
 -2       164       191       194       225       165        80       227       230       168       195
 -1         8    4    0    1
 -2       222       134        64       163       228       138        66       167       223       135
 -2       162       224       225       136        65       165       229       139       166       230
 -1         9    4    0    1
 -2        59       109       228       196        57       113       234       200       108       226
 -2       227       197        58       111       231       198       112       232       233       201
 -1        10    4    0    1
 -2       109        36       138       228       113        38       142       234       110       137
 -2       229       226       111        37       140       231       114       141       235       232
 -1        11    4    0    1
 -2       196       228       167        81       200       234       171        83       227       230
 -2       168       195       198       231       169        82       233       236       172       199
 -1        12    4    0    1
 -2       228       138        66       167       234       142        68       171       229       139
 -2       166       230       231       140        67       169       235       143       170       236
 -1        13    4    0    1
 -2        57       113       234       200        55       117       240       204       112       232
 -2       233       201        56       115       237       202       116       238       239       205
 -1        14    4    0    1
 -2       113        38       142       234       117        40       146       240       114       141
 -2       235       232       115        39       144       237       118       145       241       238
 -1        15    4    0    1
 -2       200       234       171        83       204       240       175        85       233       236
 -2       172       199       202       237       173        84       239       242       176       203
 -1        16    4    0    1
 -2       234       142        68       171       240       146        70       175       235       143
 -2       170       236       237       144        69       173       241       147       174       242
 -1        17    4    0    1
 -2        55       117       240       204        53       121       246       208       116       238
 -2       239       205        54       119       243       206       120       244       245       209
 -1        18    4    0    1
 -2       117        40       146       240       121        42       150       246       118       145
 -2       241       238       119        41       148       243       122       149       247       244
 -1        19    4    0    1
 -2       204       240       175        85       208       246       179        87       239       242
 -2       176       203       206       243       177        86       245       248       180       207
 -1        20    4    0    1
 -2       240       146        70       175       246       150        72       179       241       147
 -2       174       242       243       148        71       177       247       151       178       248
 -1        21    4    0    1
 -2        53       121       246       208        51       125       252       212       120       244
 -2       245       209        52       123       249       210       124       250       251       213
 -1        22    4    0    1
 -2       121        42       150       246       125        44       154       252       122       149
 -2       247       244       123        43       152       249       126       153       253       250
 -1        23    4    0    1
 -2       208       246       179        87       212       252       183        89       245       248
 -2       180       207       210       249       181        88       251       254       184       211
 -1        24    4    0    1
 -2       246       150        72       179       252       154        74       183       247       151
 -2       178       248       249       152        73       181       253       155       182       254
 -3
    1PSTEP                         1           1           1          
  100CL  101 5.00000E-03         201                     1    1           1
 -4  DISP        4    1
 -5  D1          1    2    1    0
 -5  D2          1    2    2    0
 -5  D3          1    2    3    0
 -5  ALL         1    2    0    0    1ALL
 -1         1 0.00000E+00 0.00000E+00 0.00000E+00
 -1         2 0.00000E+00 0.00000E+00 0.00000E+00
 -1         3 0.00000E+00 0.00000E+00 0.00000E+00
 -1         4 0.00000E+00 0.00000E+00 0.00000E+00
 -1         9 0.00000E+00 0.00000E+00 0.00000E+00
 -1        10 0.00000E+00 0.00000E+00 0.00000E+00
 -1        11 0.00000E+00 0.00000E+00 0.00000E+00
 -1        12 0.00000E+00 0.00000E+00 0.00000E+00
 -1        13 0.00000E+00 0.00000E+00 0.00000E+00
 -1        14 0.00000E+00 0.00000E+00 0.00000E+00
 -1        15 0.00000E+00 0.00000E+00 0.00000E+00
 -1        16 0.00000E+00 0.00000E+00 0.00000E+00
 -1        17 0.00000E+00 0.00000E+00 0.00000E+00
 -1        18 0.00000E+00 0.00000E+00 0.00000E+00
 -1        19 0.00000E+00 0.00000E+00 0.00000E+00
 -1        20 0.00000E+00 0.00000E+00 0.00000E+00
 -1        33 6.38161E-05-1.55654E-04-2.04496E-04
 -1        34 3.12961E-05-4.81911E-04-3.74365E-04
 -1        35 2.57009E-05-9.70867E-04-4.83924E-04
 -1        36 8.05584E-06-1.52846E-03-5.40954E-04
 -1        37-5.32124E-06-2.11212E-03-5.47796E-04
 -1        38-2.13098E-05-2.69495E-03-5.19107E-04
 -1        39-4.27483E-05-3.19590E-03-3.84792E-04
 -1        40-4.32433E-05-3.54363E-03-2.09559E-04
 -1        41-4.47579E-05-3.58179E-03-6.39524E-05
 -1        42-6.17047E-05-3.74151E-03-1.48003E-04
 -1        43 6.18967E-05-3.47218E-03 8.55689E-05
 -1        44-5.94724E-05-3.46404E-03 4.48417E-04
 -1        51 5.91491E-05-3.46397E-03 4.48520E-04
 -1        52-6.23226E-05-3.47217E-03 8.56116E-05
 -1        53 6.12550E-05-3.74147E-03-1.47932E-04
 -1        54 4.42701E-05-3.58179E-03-6.39446E-05
 -1        55 4.27903E-05-3.54361E-03-2.09588E-04
 -1        56 4.23323E-05-3.19589E-03-3.84843E-04
 -1        57 2.09606E-05-2.69494E-03-5.19167E-04
 -1        58 5.04176E-06-2.11211E-03-5.47865E-04
 -1        59-8.25564E-06-1.52846E-03-5.41024E-04
 -1        60-2.58293E-05-9.70869E-04-4.83987E-04
 -1        61-3.13596E-05-4.81914E-04-3.74413E-04
 -1        62-6.38371E-05-1.55662E-04-2.04523E-04
 -1        63-6.26598E-05-1.53933E-04 2.01089E-04
 -1        64-3.11951E-05-4.81358E-04 3.67047E-04
 -1        65-2.34877E-05-9.70396E-04 4.73669E-04
 -1        66-8.03559E-06-1.53493E-03 5.27289E-04
 -1        67 4.89849E-06-2.10240E-03 5.30930E-04
 -1        68 1.44770E-05-2.69555E-03 4.94000E-04
 -1        69 5.83611E-05-3.20641E-03 3.58201E-04
 -1        70 6.55693E-05-3.63456E-03 1.84401E-04
 -1        71-5.27593E-06-3.46015E-03 3.33342E-05
 -1        72-1.03907E-04-3.48019E-03 7.89770E-05
 -1        73 2.01241E-04-3.88533E-03-1.68486E-04
 -1        74 3.15935E-04-4.40542E-03-4.94780E-04
 -1        78 6.26400E-05-1.53924E-04 2.01062E-04
 -1        79 3.11329E-05-4.81353E-04 3.66998E-04
 -1        80 2.33634E-05-9.70391E-04 4.73607E-04
 -1        81 7.83739E-06-1.53493E-03 5.27219E-04
 -1        82-5.16992E-06-2.10240E-03 5.30861E-04
 -1        83-1.48258E-05-2.69555E-03 4.93935E-04
 -1        84-5.87651E-05-3.20642E-03 3.58155E-04
 -1        85-6.60307E-05-3.63456E-03 1.84375E-04
 -1        86 4.81473E-06-3.46017E-03 3.33350E-05
 -1        87 1.03438E-04-3.48018E-03 7.89866E-05
 -1        88-2.01633E-04-3.88536E-03-1.68381E-04
 -1        89-3.16283E-04-4.40543E-03-4.94657E-04
 -1        93 0.00000E+00 0.00000E+00 0.00000E+00
 -1        94 0.00000E+00 0.00000E+00 0.00000E+00
 -1        95 0.00000E+00 0.00000E+00 0.00000E+00
 -1        96 0.00000E+00 0.00000E+00 0.00000E+00
 -1        97 0.00000E+00 0.00000E+00 0.00000E+00
 -1       103-8.02361E-09-1.81934E-04-2.00715E-04
 -1       104-1.56541E-05-5.01340E-04-3.80315E-04
 -1       105-3.17938E-08-5.03870E-04-3.82947E-04
 -1       106 1.55916E-05-5.01339E-04-3.80293E-04
 -1       107-6.28220E-08-9.80958E-04-4.86677E-04
 -1       108-3.40347E-06-1.53069E-03-5.44722E-04
 -1       109-1.01052E-07-1.54134E-03-5.43642E-04
 -1       110 3.20254E-06-1.53069E-03-5.44689E-04
 -1       111-1.39117E-07-2.10324E-03-5.51608E-04
 -1       112 7.33919E-06-2.71897E-03-5.21310E-04
 -1       113-1.77922E-07-2.71224E-03-5.22895E-04
 -1       114-7.69205E-06-2.71898E-03-5.21281E-04
 -1       115-2.07928E-07-3.15767E-03-3.93316E-04
 -1       116 3.27593E-05-3.52033E-03-2.04072E-04
 -1       117-2.34987E-07-3.64272E-03-1.83265E-04
 -1       118-3.32216E-05-3.52034E-03-2.04061E-04
 -1       119-2.40126E-07-3.55491E-03-6.57470E-05
 -1       120-7.22469E-06-3.91115E-03-1.12510E-04
 -1       121-2.44914E-07-3.76508E-03-1.17497E-04
 -1       122 6.75217E-06-3.91117E-03-1.12536E-04
 -1       123-2.09692E-07-3.48375E-03-2.49901E-05
 -1       124 1.48843E-04-2.96626E-03 4.29578E-04
 -1       125-2.14091E-07-3.58779E-03 4.48866E-04
 -1       126-1.49214E-04-2.96629E-03 4.29478E-04
 -1       132 7.04303E-07-1.18678E-04-1.58580E-06
 -1       133 1.61013E-05-4.69653E-04-1.77985E-04
 -1       134 8.55762E-07-4.74370E-04-2.85221E-06
 -1       135-1.54262E-05-4.69761E-04 1.71218E-04
 -1       136-2.23797E-07-9.53330E-04-5.54118E-06
 -1       137 4.70478E-06-1.52658E-03-2.68576E-04
 -1       138 4.23164E-07-1.51880E-03-7.30778E-06
 -1       139-3.76424E-06-1.52827E-03 2.55217E-04
 -1       140 1.54638E-06-2.12619E-03-9.14142E-06
 -1       141-1.06227E-05-2.68042E-03-2.44285E-04
 -1       142 5.32685E-06-2.68697E-03-5.09410E-06
 -1       143 1.11341E-05-2.68661E-03 2.24208E-04
 -1       144-9.04015E-06-3.21998E-03-1.26610E-05
 -1       145-2.05475E-05-3.56283E-03-1.31978E-04
 -1       146-1.31251E-05-3.46600E-03-2.47121E-05
 -1       147 1.79118E-05-3.58695E-03 1.00709E-04
 -1       148 2.66680E-05-3.68174E-03-2.36811E-05
 -1       149-3.28402E-05-3.42268E-03-4.67796E-05
 -1       150 8.45072E-05-3.44992E-03-2.13855E-06
 -1       151 2.80713E-05-3.35519E-03-1.99305E-07
 -1       152-1.26379E-04-3.72099E-03 1.13892E-05
 -1       153 6.90515E-05-3.63721E-03 1.91034E-04
 -1       154-1.19356E-04-2.50555E-03-2.10044E-05
 -1       155-6.50662E-05-3.88935E-03-2.38025E-04
 -1       161-7.55308E-09-1.80731E-04 1.96991E-04
 -1       162-1.53995E-05-5.00696E-04 3.73578E-04
 -1       163-3.02374E-08-5.01421E-04 3.75743E-04
 -1       164 1.53391E-05-5.00693E-04 3.73555E-04
 -1       165-6.14549E-08-9.81014E-04 4.76622E-04
 -1       166-4.04583E-06-1.52805E-03 5.30630E-04
 -1       167-9.75348E-08-1.53726E-03 5.32838E-04
 -1       168 3.84928E-06-1.52805E-03 5.30596E-04
 -1       169-1.37149E-07-2.10412E-03 5.30890E-04
 -1       170 7.35944E-06-2.71885E-03 5.01289E-04
 -1       171-1.71268E-07-2.68097E-03 4.96899E-04
 -1       172-7.70556E-06-2.71885E-03 5.01259E-04
 -1       173-2.05780E-07-3.17824E-03 3.68934E-04
 -1       174 3.12155E-05-3.46212E-03 1.71050E-04
 -1       175-2.23468E-07-3.56176E-03 1.72638E-04
 -1       176-3.16702E-05-3.46212E-03 1.71035E-04
 -1       177-2.40383E-07-3.51212E-03 2.07582E-05
 -1       178-4.47997E-05-4.00779E-03 7.13346E-05
 -1       179-2.18052E-07-3.57994E-03 4.81986E-05
 -1       180 4.43449E-05-4.00779E-03 7.13504E-05
 -1       181-2.07221E-07-3.68276E-03-6.11188E-05
 -1       182 1.14505E-04-2.56485E-03-4.70999E-04
 -1       183-1.24637E-07-4.35009E-03-4.76833E-04
 -1       184-1.14804E-04-2.56485E-03-4.70981E-04
 -1       190-7.28351E-07-1.18677E-04-1.61183E-06
 -1       191 1.53618E-05-4.69758E-04 1.71170E-04
 -1       192-9.20284E-07-4.74370E-04-2.90104E-06
 -1       193-1.61662E-05-4.69654E-04-1.78033E-04
 -1       194 9.53026E-08-9.53328E-04-5.60409E-06
 -1       195 3.56670E-06-1.52827E-03 2.55147E-04
 -1       196-6.20015E-07-1.51879E-03-7.37755E-06
 -1       197-4.90331E-06-1.52657E-03-2.68645E-04
 -1       198-1.82346E-06-2.12619E-03-9.21100E-06
 -1       199-1.14785E-05-2.68661E-03 2.24146E-04
 -1       200-5.66750E-06-2.68697E-03-5.15413E-06
 -1       201 1.02787E-05-2.68042E-03-2.44347E-04
 -1       202 8.62914E-06-3.21997E-03-1.27122E-05
 -1       203-1.83594E-05-3.58695E-03 1.00679E-04
 -1       204 1.26886E-05-3.46601E-03-2.47412E-05
 -1       205 2.01020E-05-3.56282E-03-1.32003E-04
 -1       206-2.71532E-05-3.68173E-03-2.36745E-05
 -1       207-2.85123E-05-3.35519E-03-1.53270E-07
 -1       208-8.49208E-05-3.44994E-03-2.06993E-06
 -1       209 3.24150E-05-3.42267E-03-4.67294E-05
 -1       210 1.25966E-04-3.72097E-03 1.14342E-05
 -1       211 6.47916E-05-3.88939E-03-2.37964E-04
 -1       212 1.19136E-04-2.50564E-03-2.09325E-05
 -1       213-6.93370E-05-3.63722E-03 1.91199E-04
 -1       219-9.35808E-09-1.44457E-04-1.42796E-06
 -1       220-3.26996E-08-4.89478E-04-1.83663E-04
 -1       221-4.46514E-07-4.91006E-04-3.64508E-06
 -1       222-3.26512E-08-4.92403E-04-3.79877E-06
 -1       223 3.82673E-07-4.91007E-04-3.62172E-06
 -1       224-3.19238E-08-4.88107E-04 1.76703E-04
 -1       225-6.25728E-08-9.65502E-04-5.12597E-06
 -1       226-1.00977E-07-1.53410E-03-2.72908E-04
 -1       227-4.65975E-07-1.52001E-03-6.88261E-06
 -1       228-1.00806E-07-1.52187E-03-8.44518E-06
 -1       229 2.66660E-07-1.52001E-03-6.84890E-06
 -1       230-9.92015E-08-1.53246E-03 2.57717E-04
 -1       231-1.36916E-07-2.12478E-03-7.47281E-06
 -1       232-1.77185E-07-2.68837E-03-2.49375E-04
 -1       233-2.38605E-06-2.68417E-03-1.27098E-05
 -1       234-1.77009E-07-2.68122E-03-1.39832E-05
 -1       235 2.03868E-06-2.68417E-03-1.26793E-05
 -1       236-1.73943E-07-2.67122E-03 2.27129E-04
 -1       237-2.03427E-07-3.19244E-03-9.34408E-06
 -1       238-2.34895E-07-3.61147E-03-1.24059E-04
 -1       239 5.53564E-06-3.45366E-03-1.43982E-05
 -1       240-2.35079E-07-3.47761E-03-2.00460E-05
 -1       241-5.99086E-06-3.45366E-03-1.43898E-05
 -1       242-2.28870E-07-3.57400E-03 8.84053E-05
 -1       243-2.31736E-07-3.65598E-03-2.12430E-05
 -1       244-2.44150E-07-3.52081E-03-2.05867E-05
 -1       245-3.38641E-05-3.61198E-03-2.61970E-05
 -1       246-2.46719E-07-3.65109E-03-1.97868E-05
 -1       247 3.34111E-05-3.61197E-03-2.62104E-05
 -1       248-2.31171E-07-3.43729E-03-1.00294E-05
 -1       249-1.94259E-07-3.52343E-03-1.34911E-05
 -1       250-2.16849E-07-4.07850E-03 1.74785E-04
 -1       251 3.00609E-05-2.57163E-03-1.06532E-05
 -1       252-2.09514E-07-3.12234E-03-1.61792E-05
 -1       253-3.03835E-05-2.57157E-03-1.07739E-05
 -1       254-1.65257E-07-4.40784E-03-2.54328E-04
 -3
    1PSTEP                         2           2           1          
  100CL  102 1.00000E-02         201                     1    2           1
 -4  DISP        4    1
 -5  D1          1    2    1    0
 -5  D2          1    2    2    0
 -5  D3          1    2    3    0
 -5  ALL         1    2    0    0    1ALL
 -1         1 0.00000E+00 0.00000E+00 0.00000E+00
 -1         2 0.00000E+00 0.00000E+00 0.00000E+00
 -1         3 0.00000E+00 0.00000E+00 0.00000E+00
 -1         4 0.00000E+00 0.00000E+00 0.00000E+00
 -1         9 0.00000E+00 0.00000E+00 0.00000E+00
 -1        10 0.00000E+00 0.00000E+00 0.00000E+00
 -1        11 0.00000E+00 0.00000E+00 0.00000E+00
 -1        12 0.00000E+00 0.00000E+00 0.00000E+00
 -1        13 0.00000E+00 0.00000E+00 0.00000E+00
 -1        14 0.00000E+00 0.00000E+00 0.00000E+00
 -1        15 0.00000E+00 0.00000E+00 0.00000E+00
 -1        16 0.00000E+00 0.00000E+00 0.00000E+00
 -1        17 0.00000E+00 0.00000E+00 0.00000E+00
 -1        18 0.00000E+00 0.00000E+00 0.00000E+00
 -1        19 0.00000E+00 0.00000E+00 0.00000E+00
 -1        20 0.00000E+00 0.00000E+00 0.00000E+00
 -1        33-3.20056E-05 7.91783E-05 1.03022E-04
 -1        34-1.55108E-05 2.44821E-04 1.87768E-04
 -1        35-1.27959E-05 4.92575E-04 2.42769E-04
 -1        36-4.58468E-06 7.74349E-04 2.70110E-04
 -1        37 4.21843E-06 1.07187E-03 2.71906E-04
 -1        38 1.33645E-05 1.36765E-03 2.50361E-04
 -1        39 2.05853E-05 1.60884E-03 1.85287E-04
 -1        40 1.37791E-05 1.78341E-03 9.25020E-05
 -1        41 3.50891E-05 1.81756E-03 2.07894E-05
 -1        42 4.44854E-05 1.87207E-03 1.11019E-05
 -1        43-3.96280E-05 1.69648E-03-7.82434E-05
 -1        44-1.54025E-04 1.60596E-03-2.33792E-04
 -1        51 1.53805E-04 1.60606E-03-2.33756E-04
 -1        52 3.93520E-05 1.69651E-03-7.81904E-05
 -1        53-4.47866E-05 1.87210E-03 1.11230E-05
 -1        54-3.53835E-05 1.81758E-03 2.07895E-05
 -1        55-1.40673E-05 1.78343E-03 9.24854E-05
 -1        56-2.08461E-05 1.60886E-03 1.85258E-04
 -1        57-1.35851E-05 1.36766E-03 2.50324E-04
 -1        58-4.39300E-06 1.07187E-03 2.71863E-04
 -1        59 4.45829E-06 7.74354E-04 2.70067E-04
 -1        60 1.27146E-05 4.92577E-04 2.42731E-04
 -1        61 1.54700E-05 2.44821E-04 1.87738E-04
 -1        62 3.19919E-05 7.91745E-05 1.03006E-04
 -1        63 3.19850E-05 7.91609E-05-1.02978E-04
 -1        64 1.54690E-05 2.44814E-04-1.87681E-04
 -1        65 1.26971E-05 4.92570E-04-2.42641E-04
 -1        66 4.44313E-06 7.74364E-04-2.69943E-04
 -1        67-4.35102E-06 1.07180E-03-2.71721E-04
 -1        68-1.35160E-05 1.36764E-03-2.50161E-04
 -1        69-2.10584E-05 1.60899E-03-1.85028E-04
 -1        70-1.45093E-05 1.78383E-03-9.21870E-05
 -1        71-3.43964E-05 1.81659E-03-2.05187E-05
 -1        72-4.30415E-05 1.87035E-03-1.09843E-05
 -1        73 3.52586E-05 1.70059E-03 7.86600E-05
 -1        74 1.45838E-04 1.61268E-03 2.34245E-04
 -1        78-3.19963E-05 7.91671E-05-1.02994E-04