    1C
    1UUSER                                                              
    1UDATE              15.july.2018                                    
    1UTIME              19:50:26                                        
    1UHOST                                                              
    1UPGM               CalculiX                                        
    1UVERSION           Version 2.13                             
    1UCOMPILETIME       jue jun 14 00:40:39 CEST 2018                    
    1UDIR                                                               
    1UDBN                                                               
    1UMAT    1EL                                                        
    2C                            81                                     1
 -1         5 0.00000E+00 0.00000E+00 8.00000E+00
 -1         6 1.00000E+00 0.00000E+00 8.00000E+00
 -1         7 1.00000E+00 1.00000E+00 8.00000E+00
 -1         8 0.00000E+00 1.00000E+00 8.00000E+00
 -1        21 2.50000E-01 0.00000E+00 8.00000E+00
 -1        22 5.00000E-01 0.00000E+00 8.00000E+00
 -1        23 7.50000E-01 0.00000E+00 8.00000E+00
 -1        24 1.00000E+00 2.50000E-01 8.00000E+00
 -1        25 1.00000E+00 5.00000E-01 8.00000E+00
 -1        26 1.00000E+00 7.50000E-01 8.00000E+00
 -1        27 7.50000E-01 1.00000E+00 8.00000E+00
 -1        28 5.00000E-01 1.00000E+00 8.00000E+00
 -1        29 2.50000E-01 1.00000E+00 8.00000E+00
 -1        30 0.00000E+00 7.50000E-01 8.00000E+00
 -1        31 0.00000E+00 5.00000E-01 8.00000E+00
 -1        32 0.00000E+00 2.50000E-01 8.00000E+00
 -1        44 1.00000E+00 0.00000E+00 6.00000E+00
 -1        45 1.00000E+00 0.00000E+00 6.50000E+00
 -1        46 1.00000E+00 0.00000E+00 7.00000E+00
 -1        47 1.00000E+00 0.00000E+00 7.50000E+00
 -1        48 0.00000E+00 0.00000E+00 7.50000E+00
 -1        49 0.00000E+00 0.00000E+00 7.00000E+00
 -1        50 0.00000E+00 0.00000E+00 6.50000E+00
 -1        51 0.00000E+00 0.00000E+00 6.00000E+00
 -1        74 1.00000E+00 1.00000E+00 6.00000E+00
 -1        75 1.00000E+00 1.00000E+00 6.50000E+00
 -1        76 1.00000E+00 1.00000E+00 7.00000E+00
 -1        77 1.00000E+00 1.00000E+00 7.50000E+00
 -1        89 0.00000E+00 1.00000E+00 6.00000E+00
 -1        90 0.00000E+00 1.00000E+00 6.50000E+00
 -1        91 0.00000E+00 1.00000E+00 7.00000E+00
 -1        92 0.00000E+00 1.00000E+00 7.50000E+00
 -1        98 5.00000E-01 2.50000E-01 8.00000E+00
 -1        99 2.50000E-01 5.00000E-01 8.00000E+00
 -1       100 5.00000E-01 5.00000E-01 8.00000E+00
 -1       101 7.50000E-01 5.00000E-01 8.00000E+00
 -1       102 5.00000E-01 7.50000E-01 8.00000E+00
 -1       124 2.50000E-01 0.00000E+00 6.00000E+00
 -1       125 5.00000E-01 0.00000E+00 6.00000E+00
 -1       126 7.50000E-01 0.00000E+00 6.00000E+00
 -1       127 5.00000E-01 0.00000E+00 6.50000E+00
 -1       128 2.50000E-01 0.00000E+00 7.00000E+00
 -1       129 5.00000E-01 0.00000E+00 7.00000E+00
 -1       130 7.50000E-01 0.00000E+00 7.00000E+00
 -1       131 5.00000E-01 0.00000E+00 7.50000E+00
 -1       153 1.00000E+00 2.50000E-01 6.00000E+00
 -1       154 1.00000E+00 5.00000E-01 6.00000E+00
 -1       155 1.00000E+00 7.50000E-01 6.00000E+00
 -1       156 1.00000E+00 5.00000E-01 6.50000E+00
 -1       157 1.00000E+00 2.50000E-01 7.00000E+00
 -1       158 1.00000E+00 5.00000E-01 7.00000E+00
 -1       159 1.00000E+00 7.50000E-01 7.00000E+00
 -1       160 1.00000E+00 5.00000E-01 7.50000E+00
 -1       182 7.50000E-01 1.00000E+00 6.00000E+00
 -1       183 5.00000E-01 1.00000E+00 6.00000E+00
 -1       184 2.50000E-01 1.00000E+00 6.00000E+00
 -1       185 5.00000E-01 1.00000E+00 6.50000E+00
 -1       186 7.50000E-01 1.00000E+00 7.00000E+00
 -1       187 5.00000E-01 1.00000E+00 7.00000E+00
 -1       188 2.50000E-01 1.00000E+00 7.00000E+00
 -1       189 5.00000E-01 1.00000E+00 7.50000E+00
 -1       211 0.00000E+00 7.50000E-01 6.00000E+00
 -1       212 0.00000E+00 5.00000E-01 6.00000E+00
 -1       213 0.00000E+00 2.50000E-01 6.00000E+00
 -1       214 0.00000E+00 5.00000E-01 6.50000E+00
 -1       215 0.00000E+00 7.50000E-01 7.00000E+00
 -1       216 0.00000E+00 5.00000E-01 7.00000E+00
 -1       217 0.00000E+00 2.50000E-01 7.00000E+00
 -1       218 0.00000E+00 5.00000E-01 7.50000E+00
 -1       250 5.00000E-01 2.50000E-01 6.00000E+00
 -1       251 2.50000E-01 5.00000E-01 6.00000E+00
 -1       252 5.00000E-01 5.00000E-01 6.00000E+00
 -1       253 7.50000E-01 5.00000E-01 6.00000E+00
 -1       254 5.00000E-01 7.50000E-01 6.00000E+00
 -1       255 5.00000E-01 5.00000E-01 6.50000E+00
 -1       256 5.00000E-01 2.50000E-01 7.00000E+00
 -1       257 2.50000E-01 5.00000E-01 7.00000E+00
 -1       258 5.00000E-01 5.00000E-01 7.00000E+00
 -1       259 7.50000E-01 5.00000E-01 7.00000E+00
 -1       260 5.00000E-01 7.50000E-01 7.00000E+00
 -1       261 5.00000E-01 5.00000E-01 7.50000E+00
 -3
    3C                             8                                     1
 -1        25    4    0    1
 -2        51       125       252       212        49       129       258       216       124       250
 -2       251       213        50       127       255       214       128       256       257       217
 -1        26    4    0    1
 -2       125        44       154       252       129        46       158       258       126       153
 -2       253       250       127        45       156       255       130       157       259       256
 -1        27    4    0    1
 -2       212       252       183        89       216       258       187        91       251       254
 -2       184       211       214       255       185        90       257       260       188       215
 -1        28    4    0    1
 -2       252       154        74       183       258       158        76       187       253       155
 -2       182       254       255       156        75       185       259       159       186       260
 -1        29    4    0    1
 -2        49       129       258       216         5        22       100        31       128       256
 -2       257       217        48       131       261       218        21        98        99        32
 -1        30    4    0    1
 -2       129        46       158       258        22         6        25       100       130       157
 -2       259       256       131        47       160       261        23        24       101        98
 -1        31    4    0    1
 -2       216       258       187        91        31       100        28         8       257       260
 -2       188       215       218       261       189        92        99       102        29        30
 -1        32    4    0    1
 -2       258       158        76       187       100        25         7        28       259       159
 -2       186       260       261       160        77       189       101        26        27       102
 -3
    1PSTEP                         1           1           1          
  100CL  101 5.00000E-03          81                     1    1           1
 -4  DISP        4    1
 -5  D1          1    2    1    0
 -5  D2          1    2    2    0
 -5  D3          1    2    3    0
 -5  ALL         1    2    0    0    1ALL
 -1         5 0.00000E+00 0.00000E+00 0.00000E+00
 -1         6 0.00000E+00 0.00000E+00 0.00000E+00
 -1         7 0.00000E+00 0.00000E+00 0.00000E+00
 -1         8 0.00000E+00 0.00000E+00 0.00000E+00
 -1        21 0.00000E+00 0.00000E+00 0.00000E+00
 -1        22 0.00000E+00 0.00000E+00 0.00000E+00
 -1        23 0.00000E+00 0.00000E+00 0.00000E+00
 -1        24 0.00000E+00 0.00000E+00 0.00000E+00
 -1        25 0.00000E+00 0.00000E+00 0.00000E+00
 -1        26 0.00000E+00 0.00000E+00 0.00000E+00
 -1        27 0.00000E+00 0.00000E+00 0.00000E+00
 -1        28 0.00000E+00 0.00000E+00 0.00000E+00
 -1        29 0.00000E+00 0.00000E+00 0.00000E+00
 -1        30 0.00000E+00 0.00000E+00 0.00000E+00
 -1        31 0.00000E+00 0.00000E+00 0.00000E+00
 -1        32 0.00000E+00 0.00000E+00 0.00000E+00
 -1        44-7.06096E-05-3.46927E-03 4.48080E-04
 -1        45 5.49892E-05-2.55980E-03 7.85863E-04
 -1        46-4.47728E-05-1.79460E-03 9.49937E-04
 -1        47 1.31467E-04-6.74130E-04 5.42264E-04
 -1        48-1.31443E-04-6.74118E-04 5.42227E-04
 -1        49 4.48535E-05-1.79460E-03 9.49862E-04
 -1        50-5.48179E-05-2.55977E-03 7.85765E-04
 -1        51 7.09060E-05-3.46931E-03 4.47981E-04
 -1        74 3.52150E-04-4.42146E-03-4.94077E-04
 -1        75 2.03292E-04-2.97598E-03-7.86020E-04
 -1        76-1.16400E-04-1.59588E-03-9.51209E-04
 -1        77-2.11357E-04-5.24498E-04-5.57135E-04
 -1        89-3.51855E-04-4.42143E-03-4.94178E-04
 -1        90-2.03121E-04-2.97600E-03-7.86119E-04
 -1        91 1.16480E-04-1.59588E-03-9.51283E-04
 -1        92 2.11381E-04-5.24510E-04-5.57173E-04
 -1        98 0.00000E+00 0.00000E+00 0.00000E+00
 -1        99 0.00000E+00 0.00000E+00 0.00000E+00
 -1       100 0.00000E+00 0.00000E+00 0.00000E+00
 -1       101 0.00000E+00 0.00000E+00 0.00000E+00
 -1       102 0.00000E+00 0.00000E+00 0.00000E+00
 -1       124 1.39818E-04-2.96413E-03 4.28759E-04
 -1       125 1.40939E-07-3.58042E-03 4.47820E-04
 -1       126-1.39531E-04-2.96411E-03 4.28802E-04
 -1       127 8.57879E-08-2.55851E-03 9.01890E-04
 -1       128-7.01638E-06-1.95282E-03 9.47414E-04
 -1       129 3.70463E-08-1.81570E-03 9.40086E-04
 -1       130 7.09265E-06-1.95282E-03 9.47453E-04
 -1       131 8.73550E-09-7.36762E-04 5.56399E-04
 -1       153 7.89091E-05-3.61944E-03 1.90677E-04
 -1       154-1.11308E-04-2.48467E-03-2.05897E-05
 -1       155-8.43332E-05-3.89264E-03-2.37555E-04
 -1       156-1.17318E-04-2.78695E-03-6.53109E-05
 -1       157-2.28617E-05-1.50940E-03 3.92734E-04
 -1       158 8.55085E-05-1.56474E-03-2.94764E-05
 -1       159 5.14440E-05-1.47164E-03-4.11114E-04
 -1       160 3.90534E-05-6.57441E-04 4.85942E-06
 -1       182 1.32371E-04-2.56088E-03-4.70027E-04
 -1       183 1.41002E-07-4.33905E-03-4.76200E-04
 -1       184-1.32085E-04-2.56086E-03-4.70072E-04
 -1       185 8.52953E-08-2.82288E-03-8.70634E-04
 -1       186-4.71913E-05-2.16203E-03-9.82051E-04
 -1       187 3.72778E-08-1.83506E-03-9.61166E-04
 -1       188 4.72677E-05-2.16203E-03-9.82089E-04
 -1       189 8.67160E-09-7.22270E-04-5.64624E-04
 -1       211 8.46052E-05-3.89263E-03-2.37676E-04
 -1       212 1.11556E-04-2.48467E-03-2.06914E-05
 -1       213-7.86353E-05-3.61945E-03 1.90554E-04
 -1       214 1.17513E-04-2.78695E-03-6.54060E-05
 -1       215-5.13659E-05-1.47164E-03-4.11185E-04
 -1       216-8.54366E-05-1.56474E-03-2.95533E-05
 -1       217 2.29399E-05-1.50940E-03 3.92663E-04
 -1       218-3.90232E-05-6.57441E-04 4.81592E-06
 -1       250 1.51960E-07-4.09047E-03 1.74072E-04
 -1       251 3.75414E-05-2.56978E-03-1.04798E-05
 -1       252 1.61453E-07-3.12772E-03-1.66995E-05
 -1       253-3.72575E-05-2.56978E-03-1.03942E-05
 -1       254 1.52101E-07-4.39840E-03-2.54320E-04
 -1       255 7.87985E-08-2.59756E-03-3.18862E-05
 -1       256 4.39933E-08-1.60554E-03 3.94614E-04
 -1       257-4.21667E-05-1.74719E-03-1.20165E-05
 -1       258 4.92930E-08-1.79020E-03-1.45008E-05
 -1       259 4.22510E-05-1.74719E-03-1.19865E-05
 -1       260 4.40820E-08-1.62603E-03-4.17365E-04
 -1       261 9.34999E-09-7.16174E-04-1.82266E-06
 -3
    1PSTEP                         2           2           1          
  100CL  102 1.00000E-02          81                     1    2           1
 -4  DISP        4    1
 -5  D1          1    2    1    0
 -5  D2          1    2    2    0
 -5  D3          1    2    3    0
 -5  ALL         1    2    0    0    1ALL
 -1         5 0.00000E+00 0.00000E+00 0.00000E+00
 -1         6 0.00000E+00 0.00000E+00 0.00000E+00
 -1         7 0.00000E+00 0.00000E+00 0.00000E+00
 -1         8 0.00000E+00 0.00000E+00 0.00000E+00
 -1        21 0.00000E+00 0.00000E+00 0.00000E+00
 -1        22 0.00000E+00 0.00000E+00 0.00000E+00
 -1        23 0.00000E+00 0.00000E+00 0.00000E+00
 -1        24 0.00000E+00 0.00000E+00 0.00000E+00
 -1        25 0.00000E+00 0.00000E+00 0.00000E+00
 -1        26 0.00000E+00 0.00000E+00 0.00000E+00
 -1        27 0.00000E+00 0.00000E+00 0.00000E+00
 -1        28 0.00000E+00 0.00000E+00 0.00000E+00
 -1        29 0.00000E+00 0.00000E+00 0.00000E+00
 -1        30 0.00000E+00 0.00000E+00 0.00000E+00
 -1        31 0.00000E+00 0.00000E+00 0.00000E+00
 -1        32 0.00000E+00 0.00000E+00 0.00000E+00
 -1        44-1.59394E-04 1.59990E-03-2.34030E-04
 -1        45-4.00307E-05 1.24401E-03-3.77477E-04
 -1        46 4.37760E-05 9.16586E-04-4.32358E-04
 -1        47-5.26493E-05 3.71302E-04-2.84002E-04
 -1        48 5.26282E-05 3.71297E-04-2.83985E-04
 -1        49-4.38574E-05 9.16597E-04-4.32310E-04
 -1        50 3.99226E-05 1.24399E-03-3.77385E-04
 -1        51 1.59157E-04 1.59991E-03-2.33948E-04
 -1        74 1.39720E-04 1.62382E-03 2.34103E-04
 -1        75 2.81921E-05 1.25689E-03 3.77265E-04
 -1        76-3.80175E-05 9.10296E-04 4.32266E-04
 -1        77 5.59922E-05 3.67458E-04 2.84071E-04
 -1        89-1.39860E-04 1.62385E-03 2.34160E-04
 -1        90-2.83062E-05 1.25693E-03 3.77362E-04
 -1        91 3.79620E-05 9.10287E-04 4.32311E-04
 -1        92-5.60109E-05 3.67470E-04 2.84094E-04
 -1        98 0.00000E+00 0.00000E+00 0.00000E+00
 -1        99 0.00000E+00 0.00000E+00 0.00000E+00
 -1       100 0.00000E+00 0.00000E+00 0.00000E+00
 -1       101 0.00000E+00 0.00000E+00 0.00000E+00
 -1       102 0.00000E+00 0.00000E+00 0.00000E+00
 -1       124 9.68389E-06 1.48318E-03-2.20436E-04
 -1       125-7.89817E-08 1.76442E-03-2.31267E-04
 -1       126-9.89003E-06 1.48314E-03-2.20433E-04
 -1       127-7.95624E-08 1.30179E-03-4.18371E-04
 -1       128-4.78560E-06 9.58387E-04-4.63459E-04
 -1       129-1.72169E-08 8.89810E-04-4.72667E-04
 -1       130 4.73170E-06 9.58388E-04-4.63492E-04
 -1       131-9.83618E-09 3.75419E-04-2.76064E-04
 -1       153 1.27386E-04 1.91195E-03-1.03887E-04
 -1       154-2.52974E-06 1.69413E-03-4.19125E-08
 -1       155-1.21492E-04 1.92486E-03 1.04007E-04
 -1       156 1.07413E-06 1.40680E-03 1.45098E-06
 -1       157-2.56082E-05 7.94273E-04-1.86114E-04
 -1       158-2.32928E-07 8.09738E-04 5.50346E-07
 -1       159 2.40762E-05 7.91134E-04 1.86004E-04
 -1       160-3.43055E-07 3.08147E-04-5.40763E-09
 -1       182-1.50049E-06 1.47423E-03 2.20642E-04
 -1       183-8.75704E-08 1.77620E-03 2.31620E-04
 -1       184 1.33244E-06 1.47422E-03 2.20672E-04
 -1       185-5.94221E-08 1.30280E-03 4.15997E-04
 -1       186-1.70243E-06 9.60950E-04 4.63765E-04
 -1       187-2.32946E-08 8.88935E-04 4.71949E-04
 -1       188 1.65538E-06 9.60951E-04 4.63788E-04
 -1       189-6.22555E-09 3.75360E-04 2.76011E-04
 -1       211 1.21280E-04 1.92491E-03 1.04083E-04
 -1       212 2.28217E-06 1.69417E-03 1.43724E-07
 -1       213-1.27646E-04 1.91196E-03-1.03774E-04
 -1       214-1.21847E-06 1.40681E-03 1.53619E-06
 -1       215-2.41310E-05 7.91129E-04 1.86063E-04
 -1       216 1.74616E-07 8.09745E-04 6.01609E-07
 -1       217 2.55404E-05 7.94285E-04-1.86059E-04
 -1       218 3.22231E-07 3.08149E-04 2.56071E-08
 -1       250-1.07248E-07 1.91182E-03-1.02878E-04
 -1       251-3.07437E-06 1.20925E-03-9.28952E-08
 -1       252-1.46087E-07 1.54337E-03 1.18295E-07
 -1       253 2.81512E-06 1.20923E-03-2.04147E-07
 -1       254-1.14431E-07 1.90872E-03 1.03700E-04
 -1       255-6.15725E-08 1.37551E-03 1.80238E-07
 -1       256-2.93053E-08 7.82607E-04-2.07258E-04
 -1       257 9.80541E-07 9.14046E-04 5.23419E-08
 -1       258-3.77432E-08 8.12094E-04 7.21502E-08
 -1       259-1.04899E-06 9.14043E-04 3.14546E-08
 -1       260-3.18562E-08 7.84090E-04 2.07426E-04
 -1       261-5.13161E-09 3.48328E-04 1.16121E-08
 -3
    1PSTEP                         3           3           1          
  100CL  103 1.50000E-02          81                     1    3           1
 -4  DISP        4    1
 -5  D1          1    2    1    0
 -5  D2          1    2    2    0
 -5  D3          1    2    3    0
 -5  ALL         1    2    0    0    1ALL
 -1         5 0.00000E+00 0.00000E+00 0.00000E+00
 -1         6 0.00000E+00 0.00000E+00 0.00000E+00
 -1         7 0.00000E+00 0.00000E+00 0.00000E+00
 -1         8 0.00000E+00 0.00000E+00 0.00000E+00
 -1        21 0.00000E+00 0.00000E+00 0.00000E+00
 -1        22 0.00000E+00 0.00000E+00 0.00000E+00
 -1        23 0.00000E+00 0.00000E+00 0.00000E+00
 -1        24 0.00000E+00 0.00000E+00 0.00000E+00
 -1        25 0.00000E+00 0.00000E+00 0.00000E+00
 -1        26 0.00000E+00 0.00000E+00 0.00000E+00
 -1        27 0.00000E+00 0.00000E+00 0.00000E+00
 -1        28 0.00000E+00 0.00000E+00 0.00000E+00
 -1        29 0.00000E+00 0.00000E+00 0.00000E+00
 -1        30 0.00000E+00 0.00000E+00 0.00000E+00
 -1        31 0.00000E+00 0.00000E+00 0.00000E+00
 -1        32 0.00000E+00 0.00000E+00 0.00000E+00
 -1        44 1.21020E-04-1.27335E-03 1.85392E-04
 -1        45 2.79867E-05-9.89111E-04 2.98863E-04
 -1        46-3.32052E-05-7.24441E-04 3.42130E-04
 -1        47 4.26173E-05-2.93310E-04 2.25068E-04
 -1        48-4.26205E-05-2.93327E-04 2.25108E-04
 -1        49 3.32335E-05-7.24467E-04 3.42174E-04
 -1        50-2.81444E-05-9.89079E-04 2.98850E-04
 -1        51-1.21187E-04-1.27315E-03 1.85385E-04
 -1        74-1.21692E-04-1.27342E-03-1.85410E-04
 -1        75-2.82719E-05-9.89118E-04-2.98811E-04
 -1        76 3.31460E-05-7.24294E-04-3.42164E-04
 -1        77-4.25895E-05-2.93285E-04-2.25121E-04
 -1        89 1.21458E-04-1.27362E-03-1.85369E-04
 -1        90 2.80974E-05-9.89170E-04-2.98809E-04
 -1        91-3.31335E-05-7.24279E-04-3.42118E-04
 -1        92 4.25806E-05-2.93275E-04-2.25080E-04
 -1        98 0.00000E+00 0.00000E+00 0.00000E+00
 -1        99 0.00000E+00 0.00000E+00 0.00000E+00
 -1       100 0.00000E+00 0.00000E+00 0.00000E+00
 -1       101 0.00000E+00 0.00000E+00 0.00000E+00
 -1       102 0.00000E+00 0.00000E+00 0.00000E+00
 -1       124-3.46243E-06-1.17222E-03 1.74706E-04
 -1       125-1.65149E-07-1.40042E-03 1.83328E-04
 -1       126 3.25291E-06-1.17222E-03 1.74650E-04
 -1       127-1.93260E-08-1.03127E-03 3.30266E-04
 -1       128 2.64001E-06-7.59668E-04 3.67098E-04
 -1       129-4.12565E-08-7.04331E-04 3.74125E-04
 -1       130-2.67739E-06-7.59674E-04 3.67092E-04
 -1       131 5.93888E-09-2.97462E-04 2.18651E-04
 -1       153-9.99195E-05-1.52013E-03 8.22915E-05
 -1       154-3.52133E-07-1.34433E-03 2.35814E-08
 -1       155 1.00040E-04-1.51899E-03-8.24231E-05
 -1       156-1.48371E-07-1.11385E-03-3.01080E-08
 -1       157 1.99416E-05-6.28469E-04 1.47263E-04
 -1       158 1.02604E-07-6.42141E-04-3.49819E-08
 -1       159-2.00314E-05-6.28673E-04-1.47290E-04
 -1       160 2.88330E-08-2.44152E-04-5.67692E-09
 -1       182-4.77159E-06-1.17202E-03-1.74736E-04
 -1       183-1.89116E-07-1.40098E-03-1.83360E-04
 -1       184 4.50778E-06-1.17203E-03-1.74663E-04
 -1       185-2.80535E-08-1.03152E-03-3.30303E-04
 -1       186 2.83756E-06-7.59752E-04-3.67109E-04
 -1       187-4.76907E-08-7.04312E-04-3.74145E-04
 -1       188-2.88935E-06-7.59764E-04-3.67101E-04
 -1       189 2.80234E-09-2.97390E-04-2.18638E-04
 -1       211-1.00170E-04-1.51915E-03-8.23325E-05
 -1       212 2.04312E-07-1.34434E-03-3.03244E-08
 -1       213 9.98267E-05-1.51998E-03 8.23439E-05
 -1       214 1.11263E-07-1.11387E-03 2.18932E-08
 -1       215 1.99883E-05-6.28655E-04-1.47264E-04
 -1       216-1.76570E-07-6.42145E-04 1.20046E-08
 -1       217-1.99777E-05-6.28496E-04 1.47289E-04
 -1       218-3.85771E-08-2.44155E-04 1.95854E-09
 -1       250-6.42589E-08-1.50994E-03 8.18020E-05
 -1       251-4.63872E-07-9.57917E-04-3.64162E-08
 -1       252 6.39165E-08-1.22064E-03-1.66290E-08
 -1       253 4.31708E-07-9.57916E-04 3.97204E-08
 -1       254-7.82235E-08-1.51124E-03-8.17934E-05
 -1       255-4.75182E-08-1.08980E-03-2.83021E-08
 -1       256-1.61343E-08-6.20614E-04 1.64273E-04
 -1       257 4.87381E-08-7.24241E-04 1.14848E-08
 -1       258 3.93576E-09-6.42945E-04-1.14509E-09
 -1       259-7.34796E-08-7.24239E-04-2.41181E-08
 -1       260-1.87767E-08-6.20377E-04-1.64285E-04
 -1       261-1.38553E-08-2.76032E-04-5.53689E-10
 -3
    1PSTEP                         4           4           1          
  100CL  104 2.00000E-02          81                     1    4           1
 -4  DISP        4    1
 -5  D1          1    2    1    0
 -5  D2          1    2    2    0
 -5  D3          1    2    3    0
 -5  ALL         1    2    0    0    1ALL
 -1         5 0.00000E+00 0.00000E+00 0.00000E+00
 -1         6 0.00000E+00 0.00000E+00 0.00000E+00
 -1         7 0.00000E+00 0.00000E+00 0.00000E+00
 -1         8 0.00000E+00 0.00000E+00 0.00000E+00
 -1        21 0.00000E+00 0.00000E+00 0.00000E+00
 -1        22 0.00000E+00 0.00000E+00 0.00000E+00
 -1        23 0.00000E+00 0.00000E+00 0.00000E+00
 -1        24 0.00000E+00 0.00000E+00 0.00000E+00
 -1        25 0.00000E+00 0.00000E+00 0.00000E+00
 -1        26 0.00000E+00 0.00000E+00 0.00000E+00
 -1        27 0.00000E+00 0.00000E+00 0.00000E+00
 -1        28 0.00000E+00 0.00000E+00 0.00000E+00
 -1        29 0.00000E+00 0.00000E+00 0.00000E+00
 -1        30 0.00000E+00 0.00000E+00 0.00000E+00
 -1        31 0.00000E+00 0.00000E+00 0.00000E+00
 -1        32 0.00000E+00 0.00000E+00 0.00000E+00
 -1        44-9.64923E-05 9.86184E-04-1.43865E-04
 -1        45-2.29788E-05 7.66703E-04-2.31887E-04
 -1        46 2.61169E-05 5.62466E-04-2.65515E-04
 -1        47-3.27414E-05 2.27956E-04-1.74706E-04
 -1        48 3.27431E-05 2.27961E-04-1.74718E-04
 -1        49-2.61285E-05 5.62473E-04-2.65525E-04
 -1        50 2.30296E-05 7.66689E-04-2.31881E-04
 -1        51 9.65411E-05 9.86116E-04-1.43861E-04
 -1        74 9.25412E-05 9.89627E-04 1.43871E-04
 -1        75 2.08900E-05 7.68715E-04 2.31911E-04
 -1        76-2.54532E-05 5.61867E-04 2.65545E-04
 -1        77 3.33404E-05 2.27417E-04 1.74718E-04
 -1        89-9.24938E-05 9.89694E-04 1.43879E-04
 -1        90-2.08311E-05 7.68731E-04 2.31920E-04
 -1        91 2.54419E-05 5.61862E-04 2.65527E-04
 -1        92-3.33381E-05 2.27414E-04 1.74703E-04
 -1        98 0.00000E+00 0.00000E+00 0.00000E+00
 -1        99 0.00000E+00 0.00000E+00 0.00000E+00
 -1       100 0.00000E+00 0.00000E+00 0.00000E+00
 -1       101 0.00000E+00 0.00000E+00 0.00000E+00
 -1       102 0.00000E+00 0.00000E+00 0.00000E+00
 -1       124 6.05251E-06 9.10472E-04-1.35569E-04
 -1       125 5.53487E-08 1.08630E-03-1.42233E-04
 -1       126-5.98609E-06 9.10474E-04-1.35557E-04
 -1       127 5.37355E-09 8.00401E-04-2.56579E-04
 -1       128-2.71662E-06 5.89480E-04-2.84910E-04
 -1       129 1.40936E-08 5.47011E-04-2.90499E-04
 -1       130 2.72850E-06 5.89483E-04-2.84909E-04
 -1       131-1.98099E-09 2.30862E-04-1.69702E-04
 -1       153 7.85237E-05 1.17661E-03-6.39239E-05
 -1       154-8.03268E-07 1.04417E-03 2.78474E-09
 -1       155-7.70668E-05 1.18147E-03 6.39436E-05
 -1       156-4.31316E-08 8.64766E-04 2.28251E-07
 -1       157-1.57215E-05 4.88409E-04-1.14330E-04
 -1       158 2.74185E-07 4.98260E-04 7.87391E-08
 -1       159 1.54320E-05 4.87401E-04 1.14310E-04
 -1       160 6.88333E-10 1.89408E-04-4.78013E-10
 -1       182 9.31906E-07 9.09379E-04 1.35623E-04
 -1       183 5.99115E-08 1.08732E-03 1.42290E-04
 -1       184-8.61254E-07 9.09380E-04 1.35588E-04
 -1       185 3.40048E-09 8.00139E-04 2.56147E-04
 -1       186-1.67441E-06 5.89714E-04 2.84931E-04
 -1       187 1.67133E-08 5.46733E-04 2.90328E-04
 -1       188 1.68895E-06 5.89717E-04 2.84931E-04
 -1       189-1.54992E-09 2.30962E-04 1.69710E-04
 -1       211 7.70911E-05 1.18152E-03 6.39160E-05
 -1       212 8.47366E-07 1.04417E-03 2.51077E-08
 -1       213-7.84983E-05 1.17656E-03-6.39331E-05
 -1       214 4.91670E-08 8.64770E-04 2.13841E-07
 -1       215-1.54211E-05 4.87394E-04 1.14303E-04
 -1       216-2.49721E-07 4.98261E-04 6.51204E-08
 -1       217 1.57320E-05 4.88418E-04-1.14336E-04
 -1       218 1.91329E-09 1.89409E-04-1.92784E-09
 -1       250 1.90593E-08 1.17483E-03-6.33959E-05
 -1       251-1.77577E-06 7.43252E-04-1.55722E-08
 -1       252-2.68876E-08 9.47678E-04 1.58668E-08
 -1       253 1.77847E-06 7.43250E-04-4.63062E-08
 -1       254 2.18360E-08 1.17103E-03 6.34641E-05
 -1       255 1.40241E-08 8.45979E-04 1.97188E-09
 -1       256 4.85283E-09 4.81145E-04-1.27491E-04
 -1       257 3.56573E-07 5.62211E-04-9.53900E-09
 -1       258-2.64506E-09 4.98969E-04-7.75171E-10
 -1       259-3.49796E-07 5.62210E-04 2.07316E-09
 -1       260 5.93209E-09 4.81958E-04 1.27511E-04
 -1       261 4.60791E-09 2.14231E-04-6.92176E-09
 -3
    1PSTEP                         5           5           1          
  100CL  105 2.50000E-02          81                     1    5           1
 -4  DISP        4    1
 -5  D1          1    2    1    0
 -5  D2          1    2    2    0
 -5  D3          1    2    3    0
 -5  ALL         1    2    0    0    1ALL
 -1         5 0.00000E+00 0.00000E+00 0.00000E+00
 -1         6 0.00000E+00 0.00000E+00 0.00000E+00
 -1         7 0.00000E+00 0.00000E+00 0.00000E+00
 -1         8 0.00000E+00 0.00000E+00 0.00000E+00
 -1        21 0.00000E+00 0.00000E+00 0.00000E+00
 -1        22 0.00000E+00 0.00000E+00 0.00000E+00
 -1        23 0.00000E+00 0.00000E+00 0.00000E+00
 -1        24 0.00000E+00 0.00000E+00 0.00000E+00
 -1        25 0.00000E+00 0.00000E+00 0.00000E+00
 -1        26 0.00000E+00 0.00000E+00 0.00000E+00
 -1        27 0.00000E+00 0.00000E+00 0.00000E+00
 -1        28 0.00000E+00 0.00000E+00 0.00000E+00
 -1        29 0.00000E+00 0.00000E+00 0.00000E+00
 -1        30 0.00000E+00 0.00000E+00 0.00000E+00
 -1        31 0.00000E+00 0.00000E+00 0.00000E+00
 -1        32 0.00000E+00 0.00000E+00 0.00000E+00
 -1        44 6.89867E-05-7.48074E-04 1.08631E-04
 -1        45 1.53660E-05-5.80645E-04 1.75036E-04
 -1        46-1.89662E-05-4.23965E-04 2.00488E-04
 -1        47 2.52799E-05-1.71519E-04 1.31856E-04
 -1        48-2.52831E-05-1.71532E-04 1.31892E-04
 -1        49 1.90055E-05-4.23986E-04 2.00524E-04
 -1        50-1.55018E-05-5.80606E-04 1.75020E-04
 -1        51-6.90561E-05-7.47971E-04 1.08628E-04
 -1        74-7.27071E-05-7.44142E-04-1.08620E-04
 -1        75-1.75180E-05-5.78537E-04-1.75006E-04
 -1        76 1.98400E-05-4.24858E-04-2.00538E-04
 -1        77-2.47139E-05-1.72118E-04-1.31894E-04
 -1        89 7.25810E-05-7.44267E-04-1.08604E-04
 -1        90 1.73919E-05-5.78588E-04-1.75022E-04
 -1        91-1.98178E-05-4.24837E-04-2.00508E-04
 -1        92 2.47098E-05-1.72109E-04-1.31864E-04
 -1        98 0.00000E+00 0.00000E+00 0.00000E+00
 -1        99 0.00000E+00 0.00000E+00 0.00000E+00
 -1       100 0.00000E+00 0.00000E+00 0.00000E+00
 -1       101 0.00000E+00 0.00000E+00 0.00000E+00
 -1       102 0.00000E+00 0.00000E+00 0.00000E+00
 -1       124-6.65280E-07-6.86102E-04 1.02391E-04
 -1       125-1.42648E-07-8.21445E-04 1.07432E-04
 -1       126 5.17741E-07-6.86072E-04 1.02296E-04
 -1       127 7.43674E-10-6.04225E-04 1.93371E-04
 -1       128 1.21329E-06-4.45315E-04 2.15108E-04
 -1       129-4.07572E-08-4.12598E-04 2.19117E-04
 -1       130-1.24253E-06-4.45320E-04 2.15114E-04
 -1       131 5.98812E-09-1.74318E-04 1.28129E-04
 -1       153-5.78028E-05-8.91581E-04 4.81847E-05
 -1       154-6.49807E-07-7.86927E-04 2.08638E-08
 -1       155 5.89210E-05-8.88214E-04-4.82797E-05
 -1       156 8.65861E-08-6.52803E-04 2.09746E-07
 -1       157 1.15021E-05-3.67843E-04 8.63004E-05
 -1       158 6.61108E-08-3.76061E-04 6.46721E-08
 -1       159-1.17887E-05-3.68587E-04-8.63352E-05
 -1       160-2.99704E-08-1.43075E-04-2.63566E-10
 -1       182-3.83283E-06-6.87367E-04-1.02345E-04
 -1       183-1.31009E-07-8.20009E-04-1.07381E-04
 -1       184 3.66983E-06-6.87356E-04-1.02284E-04
 -1       185-1.31469E-08-6.04284E-04-1.93820E-04
 -1       186 1.92060E-06-4.45027E-04-2.15087E-04
 -1       187-3.51682E-08-4.12870E-04-2.19269E-04
 -1       188-1.95288E-06-4.45032E-04-2.15087E-04
 -1       189 3.95830E-09-1.74298E-04-1.28131E-04
 -1       211-5.89991E-05-8.88336E-04-4.82322E-05
 -1       212 5.19507E-07-7.86947E-04-2.02679E-08
 -1       213 5.77540E-05-8.91489E-04 4.82320E-05
 -1       214-8.89335E-08-6.52805E-04 2.47187E-07
 -1       215 1.17587E-05-3.68568E-04-8.63191E-05
 -1       216-1.29033E-07-3.76064E-04 9.39232E-08
 -1       217-1.15238E-05-3.67865E-04 8.63174E-05
 -1       218 2.54339E-08-1.43076E-04-2.19828E-09
 -1       250-5.00050E-08-8.84625E-04 4.80192E-05
 -1       251-1.01289E-06-5.61238E-04-9.54388E-08
 -1       252 7.07461E-08-7.15772E-04-1.48993E-08
 -1       253 1.00200E-06-5.61228E-04-6.04703E-09
 -1       254-4.20367E-08-8.86519E-04-4.78844E-05
 -1       255-3.61234E-08-6.38384E-04-6.00734E-09
 -1       256-1.16515E-08-3.63866E-04 9.62276E-05
 -1       257 2.29183E-07-4.24349E-04 1.28269E-08
 -1       258 1.17238E-08-3.76918E-04 1.50187E-09
 -1       259-2.42296E-07-4.24347E-04-1.82714E-08
 -1       260-9.33474E-09-3.63431E-04-9.62288E-05
 -1       261-1.13768E-08-1.61739E-04 3.29328E-09
 -3
    1PSTEP                         6           6           1          
  100CL  106 3.00000E-02          81                     1    6           1
 -4  DISP        4    1
 -5  D1          1    2    1    0
 -5  D2          1    2    2    0
 -5  D3          1    2    3    0
 -5  ALL         1    2    0    0    1ALL
 -1         5 0.00000E+00 0.00000E+00 0.00000E+00
 -1         6 0.00000E+00 0.00000E+00 0.00000E+00
 -1         7 0.00000E+00 0.00000E+00 0.00000E+00
 -1         8 0.00000E+00 0.00000E+00 0.00000E+00
 -1        21 0.00000E+00 0.00000E+00 0.00000E+00
 -1        22 0.00000E+00 0.00000E+00 0.00000E+00
 -1        23 0.00000E+00 0.00000E+00 0.00000E+00
 -1        24 0.00000E+00 0.00000E+00 0.00000E+00
 -1        25 0.00000E+00 0.00000E+00 0.00000E+00
 -1        26 0.00000E+00 0.00000E+00 0.00000E+00
 -1        27 0.00000E+00 0.00000E+00 0.00000E+00
 -1        28 0.00000E+00 0.00000E+00 0.00000E+00
 -1        29 0.00000E+00 0.00000E+00 0.00000E+00
 -1        30 0.00000E+00 0.00000E+00 0.00000E+00
 -1        31 0.00000E+00 0.00000E+00 0.00000E+00
 -1        32 0.00000E+00 0.00000E+00 0.00000E+00
 -1        44-5.24733E-05 5.40654E-04-7.87697E-05
 -1        45-1.19786E-05 4.20370E-04-1.26875E-04
 -1        46 1.41580E-05 3.07775E-04-1.45257E-04
 -1        47-1.80738E-05 1.24680E-04-9.57031E-05