    1C
    1UUSER                                                              
    1UDATE              16.july.2018                                    
    1UTIME              20:27:39                                        
    1UHOST                                                              
    1UPGM               CalculiX                                        
    1UVERSION           Version 2.13                             
    1UCOMPILETIME       jue jun 14 00:40:39 CEST 2018                    
    1UDIR                                                               
    1UDBN                                                               
    1UMAT    1EL                                                        
    2C                            81                                     1
 -1         5 0.00000E+00 0.00000E+00 8.00000E+00
 -1         6 1.00000E+00 0.00000E+00 8.00000E+00
 -1         7 1.00000E+00 1.00000E+00 8.00000E+00
 -1         8 0.00000E+00 1.00000E+00 8.00000E+00
 -1        21 2.50000E-01 0.00000E+00 8.00000E+00
 -1        22 5.00000E-01 0.00000E+00 8.00000E+00
 -1        23 7.50000E-01 0.00000E+00 8.00000E+00
 -1        24 1.00000E+00 2.50000E-01 8.00000E+00
 -1        25 1.00000E+00 5.00000E-01 8.00000E+00
 -1        26 1.00000E+00 7.50000E-01 8.00000E+00
 -1        27 7.50000E-01 1.00000E+00 8.00000E+00
 -1        28 5.00000E-01 1.00000E+00 8.00000E+00
 -1        29 2.50000E-01 1.00000E+00 8.00000E+00
 -1        30 0.00000E+00 7.50000E-01 8.00000E+00
 -1        31 0.00000E+00 5.00000E-01 8.00000E+00
 -1        32 0.00000E+00 2.50000E-01 8.00000E+00
 -1        44 1.00000E+00 0.00000E+00 6.00000E+00
 -1        45 1.00000E+00 0.00000E+00 6.50000E+00
 -1        46 1.00000E+00 0.00000E+00 7.00000E+00
 -1        47 1.00000E+00 0.00000E+00 7.50000E+00
 -1        48 0.00000E+00 0.00000E+00 7.50000E+00
 -1        49 0.00000E+00 0.00000E+00 7.00000E+00
 -1        50 0.00000E+00 0.00000E+00 6.50000E+00
 -1        51 0.00000E+00 0.00000E+00 6.00000E+00
 -1        74 1.00000E+00 1.00000E+00 6.00000E+00
 -1        75 1.00000E+00 1.00000E+00 6.50000E+00
 -1        76 1.00000E+00 1.00000E+00 7.00000E+00
 -1        77 1.00000E+00 1.00000E+00 7.50000E+00
 -1        89 0.00000E+00 1.00000E+00 6.00000E+00
 -1        90 0.00000E+00 1.00000E+00 6.50000E+00
 -1        91 0.00000E+00 1.00000E+00 7.00000E+00
 -1        92 0.00000E+00 1.00000E+00 7.50000E+00
 -1        98 5.00000E-01 2.50000E-01 8.00000E+00
 -1        99 2.50000E-01 5.00000E-01 8.00000E+00
 -1       100 5.00000E-01 5.00000E-01 8.00000E+00
 -1       101 7.50000E-01 5.00000E-01 8.00000E+00
 -1       102 5.00000E-01 7.50000E-01 8.00000E+00
 -1       124 2.50000E-01 0.00000E+00 6.00000E+00
 -1       125 5.00000E-01 0.00000E+00 6.00000E+00
 -1       126 7.50000E-01 0.00000E+00 6.00000E+00
 -1       127 5.00000E-01 0.00000E+00 6.50000E+00
 -1       128 2.50000E-01 0.00000E+00 7.00000E+00
 -1       129 5.00000E-01 0.00000E+00 7.00000E+00
 -1       130 7.50000E-01 0.00000E+00 7.00000E+00
 -1       131 5.00000E-01 0.00000E+00 7.50000E+00
 -1       153 1.00000E+00 2.50000E-01 6.00000E+00
 -1       154 1.00000E+00 5.00000E-01 6.00000E+00
 -1       155 1.00000E+00 7.50000E-01 6.00000E+00
 -1       156 1.00000E+00 5.00000E-01 6.50000E+00
 -1       157 1.00000E+00 2.50000E-01 7.00000E+00
 -1       158 1.00000E+00 5.00000E-01 7.00000E+00
 -1       159 1.00000E+00 7.50000E-01 7.00000E+00
 -1       160 1.00000E+00 5.00000E-01 7.50000E+00
 -1       182 7.50000E-01 1.00000E+00 6.00000E+00
 -1       183 5.00000E-01 1.00000E+00 6.00000E+00
 -1       184 2.50000E-01 1.00000E+00 6.00000E+00
 -1       185 5.00000E-01 1.00000E+00 6.50000E+00
 -1       186 7.50000E-01 1.00000E+00 7.00000E+00
 -1       187 5.00000E-01 1.00000E+00 7.00000E+00
 -1       188 2.50000E-01 1.00000E+00 7.00000E+00
 -1       189 5.00000E-01 1.00000E+00 7.50000E+00
 -1       211 0.00000E+00 7.50000E-01 6.00000E+00
 -1       212 0.00000E+00 5.00000E-01 6.00000E+00
 -1       213 0.00000E+00 2.50000E-01 6.00000E+00
 -1       214 0.00000E+00 5.00000E-01 6.50000E+00
 -1       215 0.00000E+00 7.50000E-01 7.00000E+00
 -1       216 0.00000E+00 5.00000E-01 7.00000E+00
 -1       217 0.00000E+00 2.50000E-01 7.00000E+00
 -1       218 0.00000E+00 5.00000E-01 7.50000E+00
 -1       250 5.00000E-01 2.50000E-01 6.00000E+00
 -1       251 2.50000E-01 5.00000E-01 6.00000E+00
 -1       252 5.00000E-01 5.00000E-01 6.00000E+00
 -1       253 7.50000E-01 5.00000E-01 6.00000E+00
 -1       254 5.00000E-01 7.50000E-01 6.00000E+00
 -1       255 5.00000E-01 5.00000E-01 6.50000E+00
 -1       256 5.00000E-01 2.50000E-01 7.00000E+00
 -1       257 2.50000E-01 5.00000E-01 7.00000E+00
 -1       258 5.00000E-01 5.00000E-01 7.00000E+00
 -1       259 7.50000E-01 5.00000E-01 7.00000E+00
 -1       260 5.00000E-01 7.50000E-01 7.00000E+00
 -1       261 5.00000E-01 5.00000E-01 7.50000E+00
 -3
    3C                             8                                     1
 -1        25    4    0    1
 -2        51       125       252       212        49       129       258       216       124       250
 -2       251       213        50       127       255       214       128       256       257       217
 -1        26    4    0    1
 -2       125        44       154       252       129        46       158       258       126       153
 -2       253       250       127        45       156       255       130       157       259       256
 -1        27    4    0    1
 -2       212       252       183        89       216       258       187        91       251       254
 -2       184       211       214       255       185        90       257       260       188       215
 -1        28    4    0    1
 -2       252       154        74       183       258       158        76       187       253       155
 -2       182       254       255       156        75       185       259       159       186       260
 -1        29    4    0    1
 -2        49       129       258       216         5        22       100        31       128       256
 -2       257       217        48       131       261       218        21        98        99        32
 -1        30    4    0    1
 -2       129        46       158       258        22         6        25       100       130       157
 -2       259       256       131        47       160       261        23        24       101        98
 -1        31    4    0    1
 -2       216       258       187        91        31       100        28         8       257       260
 -2       188       215       218       261       189        92        99       102        29        30
 -1        32    4    0    1
 -2       258       158        76       187       100        25         7        28       259       159
 -2       186       260       261       160        77       189       101        26        27       102
 -3
    1PSTEP                         1           1           1          
  100CL  101 5.00000E-03          81                     1    1           1
 -4  DISP        4    1
 -5  D1          1    2    1    0
 -5  D2          1    2    2    0
 -5  D3          1    2    3    0
 -5  ALL         1    2    0    0    1ALL
 -1         5 0.00000E+00 0.00000E+00 0.00000E+00
 -1         6 0.00000E+00 0.00000E+00 0.00000E+00
 -1         7 0.00000E+00 0.00000E+00 0.00000E+00
 -1         8 0.00000E+00 0.00000E+00 0.00000E+00
 -1        21 0.00000E+00 0.00000E+00 0.00000E+00
 -1        22 0.00000E+00 0.00000E+00 0.00000E+00
 -1        23 0.00000E+00 0.00000E+00 0.00000E+00
 -1        24 0.00000E+00 0.00000E+00 0.00000E+00
 -1        25 0.00000E+00 0.00000E+00 0.00000E+00
 -1        26 0.00000E+00 0.00000E+00 0.00000E+00
 -1        27 0.00000E+00 0.00000E+00 0.00000E+00
 -1        28 0.00000E+00 0.00000E+00 0.00000E+00
 -1        29 0.00000E+00 0.00000E+00 0.00000E+00
 -1        30 0.00000E+00 0.00000E+00 0.00000E+00
 -1        31 0.00000E+00 0.00000E+00 0.00000E+00
 -1        32 0.00000E+00 0.00000E+00 0.00000E+00
 -1        44-5.92937E-05-3.46375E-03 4.48456E-04
 -1        45 5.69548E-05-2.56131E-03 7.85063E-04
 -1        46-4.79807E-05-1.79617E-03 9.49071E-04
 -1        47 1.30947E-04-6.75111E-04 5.43164E-04
 -1        48-1.30953E-04-6.75113E-04 5.43173E-04
 -1        49 4.79782E-05-1.79617E-03 9.49082E-04
 -1        50-5.69954E-05-2.56131E-03 7.85067E-04
 -1        51 5.93225E-05-3.46376E-03 4.48432E-04
 -1        74 3.16714E-04-4.40862E-03-4.94470E-04
 -1        75 1.90079E-04-2.97052E-03-7.84387E-04
 -1        76-1.09726E-04-1.59845E-03-9.49935E-04
 -1        77-2.07583E-04-5.27085E-04-5.58192E-04
 -1        89-3.16696E-04-4.40860E-03-4.94476E-04
 -1        90-1.90120E-04-2.97052E-03-7.84376E-04
 -1        91 1.09724E-04-1.59845E-03-9.49923E-04
 -1        92 2.07576E-04-5.27082E-04-5.58182E-04
 -1        98 0.00000E+00 0.00000E+00 0.00000E+00
 -1        99 0.00000E+00 0.00000E+00 0.00000E+00
 -1       100 0.00000E+00 0.00000E+00 0.00000E+00
 -1       101 0.00000E+00 0.00000E+00 0.00000E+00
 -1       102 0.00000E+00 0.00000E+00 0.00000E+00
 -1       124 1.50475E-04-2.96588E-03 4.29500E-04
 -1       125-2.32678E-08-3.58937E-03 4.48728E-04
 -1       126-1.50487E-04-2.96587E-03 4.29480E-04
 -1       127-6.28778E-09-2.56274E-03 9.03603E-04
 -1       128-9.35077E-06-1.95269E-03 9.48084E-04
 -1       129-1.27524E-08-1.81406E-03 9.41441E-04
 -1       130 9.33741E-06-1.95269E-03 9.48086E-04
 -1       131-1.31343E-09-7.36365E-04 5.56324E-04
 -1       153 6.95357E-05-3.63591E-03 1.91004E-04
 -1       154-1.20365E-04-2.50217E-03-2.09369E-05
 -1       155-6.47151E-05-3.88816E-03-2.37983E-04
 -1       156-1.20013E-04-2.78949E-03-6.45164E-05
 -1       157-2.05831E-05-1.50877E-03 3.92275E-04
 -1       158 8.83082E-05-1.56665E-03-2.93630E-05
 -1       159 4.66698E-05-1.47549E-03-4.11017E-04
 -1       160 3.97474E-05-6.56500E-04 4.87778E-06
 -1       182 1.15174E-04-2.56336E-03-4.71083E-04
 -1       183-2.98392E-08-4.35450E-03-4.76280E-04
 -1       184-1.15197E-04-2.56334E-03-4.71051E-04
 -1       185-4.53829E-09-2.83298E-03-8.74357E-04
 -1       186-4.41581E-05-2.16202E-03-9.82532E-04
 -1       187-1.38255E-08-1.83166E-03-9.63591E-04
 -1       188 4.41437E-05-2.16202E-03-9.82534E-04
 -1       189-1.19330E-09-7.19966E-04-5.64407E-04
 -1       211 6.47047E-05-3.88814E-03-2.37981E-04
 -1       212 1.20330E-04-2.50216E-03-2.09166E-05
 -1       213-6.95385E-05-3.63591E-03 1.90993E-04
 -1       214 1.19988E-04-2.78949E-03-6.45040E-05
 -1       215-4.66785E-05-1.47549E-03-4.11005E-04
 -1       216-8.83247E-05-1.56665E-03-2.93537E-05
 -1       217 2.05738E-05-1.50877E-03 3.92287E-04
 -1       218-3.97530E-05-6.56500E-04 4.88305E-06
 -1       250-2.31978E-08-4.08069E-03 1.74591E-04
 -1       251 3.02976E-05-2.57153E-03-1.06908E-05
 -1       252-2.21413E-08-3.12442E-03-1.64136E-05
 -1       253-3.03376E-05-2.57153E-03-1.07021E-05
 -1       254-2.76655E-08-4.41248E-03-2.53879E-04
 -1       255-1.15057E-08-2.59901E-03-3.19852E-05
 -1       256-1.04920E-08-1.60754E-03 3.95606E-04
 -1       257-4.10757E-05-1.74930E-03-1.20009E-05
 -1       258-8.14511E-09-1.79033E-03-1.45008E-05
 -1       259 4.10595E-05-1.74930E-03-1.20052E-05
 -1       260-1.07276E-08-1.62260E-03-4.18335E-04
 -1       261-2.39255E-09-7.16969E-04-1.94356E-06
 -3
    1PSTEP                         2           2           1          
  100CL  102 1.00000E-02          81                     1    2           1
 -4  DISP        4    1
 -5  D1          1    2    1    0
 -5  D2          1    2    2    0
 -5  D3          1    2    3    0
 -5  ALL         1    2    0    0    1ALL
 -1         5 0.00000E+00 0.00000E+00 0.00000E+00
 -1         6 0.00000E+00 0.00000E+00 0.00000E+00
 -1         7 0.00000E+00 0.00000E+00 0.00000E+00
 -1         8 0.00000E+00 0.00000E+00 0.00000E+00
 -1        21 0.00000E+00 0.00000E+00 0.00000E+00
 -1        22 0.00000E+00 0.00000E+00 0.00000E+00
 -1        23 0.00000E+00 0.00000E+00 0.00000E+00
 -1        24 0.00000E+00 0.00000E+00 0.00000E+00
 -1        25 0.00000E+00 0.00000E+00 0.00000E+00
 -1        26 0.00000E+00 0.00000E+00 0.00000E+00
 -1        27 0.00000E+00 0.00000E+00 0.00000E+00
 -1        28 0.00000E+00 0.00000E+00 0.00000E+00
 -1        29 0.00000E+00 0.00000E+00 0.00000E+00
 -1        30 0.00000E+00 0.00000E+00 0.00000E+00
 -1        31 0.00000E+00 0.00000E+00 0.00000E+00
 -1        32 0.00000E+00 0.00000E+00 0.00000E+00
 -1        44-1.48285E-04 1.61225E-03-2.33911E-04
 -1        45-3.38790E-05 1.25103E-03-3.77244E-04
 -1        46 4.06091E-05 9.12776E-04-4.32435E-04
 -1        47-5.44409E-05 3.69246E-04-2.84022E-04
 -1        48 5.44391E-05 3.69231E-04-2.83949E-04
 -1        49-4.05387E-05 9.12733E-04-4.32342E-04
 -1        50 3.36395E-05 1.25110E-03-3.77333E-04
 -1        51 1.48045E-04 1.61259E-03-2.33969E-04
 -1        74 1.50837E-04 1.61345E-03 2.34209E-04
 -1        75 3.47528E-05 1.25086E-03 3.77365E-04
 -1        76-4.12943E-05 9.13238E-04 4.32302E-04
 -1        77 5.41291E-05 3.69165E-04 2.84008E-04
 -1        89-1.51081E-04 1.61312E-03 2.34175E-04
 -1        90-3.49921E-05 1.25079E-03 3.77289E-04
 -1        91 4.13681E-05 9.13281E-04 4.32389E-04
 -1        92-5.41315E-05 3.69181E-04 2.84081E-04
 -1        98 0.00000E+00 0.00000E+00 0.00000E+00
 -1        99 0.00000E+00 0.00000E+00 0.00000E+00
 -1       100 0.00000E+00 0.00000E+00 0.00000E+00
 -1       101 0.00000E+00 0.00000E+00 0.00000E+00
 -1       102 0.00000E+00 0.00000E+00 0.00000E+00
 -1       124 4.34863E-06 1.47836E-03-2.20423E-04
 -1       125-2.53604E-07 1.77008E-03-2.31342E-04
 -1       126-4.65480E-06 1.47835E-03-2.20546E-04
 -1       127-7.34761E-09 1.30160E-03-4.17055E-04
 -1       128-3.30813E-06 9.59477E-04-4.63525E-04
 -1       129-6.54788E-08 8.89353E-04-4.72126E-04
 -1       130 3.25911E-06 9.59468E-04-4.63533E-04
 -1       131 1.11985E-08 3.75361E-04-2.76032E-04
 -1       153 1.23314E-04 1.91608E-03-1.03966E-04
 -1       154 1.35996E-06 1.69151E-03 2.98901E-07
 -1       155-1.24940E-04 1.91811E-03 1.04029E-04
 -1       156 5.30999E-07 1.40619E-03 5.64548E-08
 -1       157-2.46552E-05 7.92769E-04-1.86051E-04
 -1       158-4.57812E-07 8.09986E-04 1.76400E-08
 -1       159 2.48203E-05 7.92705E-04 1.86165E-04
 -1       160-2.06742E-07 3.08385E-04-4.85177E-08
 -1       182 4.12836E-06 1.47772E-03 2.20595E-04
 -1       183-2.65195E-07 1.77255E-03 2.31537E-04
 -1       184-4.44650E-06 1.47772E-03 2.20721E-04
 -1       185-4.71236E-09 1.30324E-03 4.17441E-04
 -1       186-3.29945E-06 9.60218E-04 4.63673E-04
 -1       187-6.74644E-08 8.89277E-04 4.72431E-04
 -1       188 3.24998E-06 9.60208E-04 4.63681E-04
 -1       189 1.17932E-08 3.75247E-04 2.76105E-04
 -1       211 1.24823E-04 1.91785E-03 1.04165E-04
 -1       212-1.56698E-06 1.69153E-03 6.31475E-08
 -1       213-1.23426E-04 1.91636E-03-1.03830E-04
 -1       214-5.18995E-07 1.40619E-03 9.98105E-08
 -1       215-2.48598E-05 7.92747E-04 1.86174E-04
 -1       216 3.48868E-07 8.09989E-04 7.80808E-08
 -1       217 2.46134E-05 7.92729E-04-1.86041E-04
 -1       218 2.01866E-07 3.08385E-04-4.68285E-08
 -1       250-7.13145E-08 1.91073E-03-1.03092E-04
 -1       251-1.03723E-06 1.21012E-03-5.02102E-09
 -1       252 1.61257E-07 1.54180E-03 7.03229E-08
 -1       253 1.06185E-06 1.21012E-03 2.65289E-07
 -1       254-7.89151E-08 1.91077E-03 1.03470E-04
 -1       255-6.36176E-08 1.37459E-03 1.53056E-07
 -1       256-1.37417E-08 7.83367E-04-2.07236E-04
 -1       257 2.92149E-07 9.13774E-04 9.43420E-08
 -1       258 2.86645E-08 8.12782E-04 7.64032E-08
 -1       259-3.04695E-07 9.13773E-04 2.74311E-08
 -1       260-1.44008E-08 7.83586E-04 2.07337E-04
 -1       261-2.04512E-08 3.48585E-04 1.43801E-08
 -3
    1PSTEP                         3           3           1          
  100CL  103 1.50000E-02          81                     1    3           1
 -4  DISP        4    1
 -5  D1          1    2    1    0
 -5  D2          1    2    2    0
 -5  D3          1    2    3    0
 -5  ALL         1    2    0    0    1ALL
 -1         5 0.00000E+00 0.00000E+00 0.00000E+00
 -1         6 0.00000E+00 0.00000E+00 0.00000E+00
 -1         7 0.00000E+00 0.00000E+00 0.00000E+00
 -1         8 0.00000E+00 0.00000E+00 0.00000E+00
 -1        21 0.00000E+00 0.00000E+00 0.00000E+00
 -1        22 0.00000E+00 0.00000E+00 0.00000E+00
 -1        23 0.00000E+00 0.00000E+00 0.00000E+00
 -1        24 0.00000E+00 0.00000E+00 0.00000E+00
 -1        25 0.00000E+00 0.00000E+00 0.00000E+00
 -1        26 0.00000E+00 0.00000E+00 0.00000E+00
 -1        27 0.00000E+00 0.00000E+00 0.00000E+00
 -1        28 0.00000E+00 0.00000E+00 0.00000E+00
 -1        29 0.00000E+00 0.00000E+00 0.00000E+00
 -1        30 0.00000E+00 0.00000E+00 0.00000E+00
 -1        31 0.00000E+00 0.00000E+00 0.00000E+00
 -1        32 0.00000E+00 0.00000E+00 0.00000E+00
 -1        44 1.17932E-04-1.27824E-03 1.85384E-04
 -1        45 2.62258E-05-9.92221E-04 2.98865E-04
 -1        46-3.20414E-05-7.22629E-04 3.42261E-04
 -1        47 4.32438E-05-2.92488E-04 2.25081E-04
 -1        48-4.32473E-05-2.92491E-04 2.25099E-04
 -1        49 3.20580E-05-7.22648E-04 3.42284E-04
 -1        50-2.63114E-05-9.92178E-04 2.98839E-04
 -1        51-1.17999E-04-1.27816E-03 1.85374E-04
 -1        74-1.22485E-04-1.27457E-03-1.85470E-04
 -1        75-2.86883E-05-9.89923E-04-2.98882E-04
 -1        76 3.32447E-05-7.23795E-04-3.42247E-04
 -1        77-4.25492E-05-2.93115E-04-2.25096E-04
 -1        89 1.22431E-04-1.27471E-03-1.85528E-04
 -1        90 2.86004E-05-9.89922E-04-2.98909E-04
 -1        91-3.32100E-05-7.23793E-04-3.42208E-04
 -1        92 4.25474E-05-2.93106E-04-2.25063E-04
 -1        98 0.00000E+00 0.00000E+00 0.00000E+00
 -1        99 0.00000E+00 0.00000E+00 0.00000E+00
 -1       100 0.00000E+00 0.00000E+00 0.00000E+00
 -1       101 0.00000E+00 0.00000E+00 0.00000E+00
 -1       102 0.00000E+00 0.00000E+00 0.00000E+00
 -1       124-3.54081E-06-1.17096E-03 1.74758E-04
 -1       125-7.78579E-08-1.40302E-03 1.83310E-04
 -1       126 3.44887E-06-1.17095E-03 1.74726E-04
 -1       127-8.64497E-09-1.03130E-03 3.30194E-04
 -1       128 2.47750E-06-7.60163E-04 3.67264E-04
 -1       129-2.39346E-08-7.04660E-04 3.74182E-04
 -1       130-2.49875E-06-7.60163E-04 3.67263E-04
 -1       131 2.12685E-09-2.97465E-04 2.18718E-04
 -1       153-9.89682E-05-1.52010E-03 8.23766E-05
 -1       154-1.02877E-06-1.34491E-03 4.12471E-09
 -1       155 1.00574E-04-1.51802E-03-8.24181E-05
 -1       156-5.60281E-08-1.11486E-03 2.44894E-07
 -1       157 1.98739E-05-6.27981E-04 1.47373E-04
 -1       158 1.48067E-07-6.41577E-04 7.00313E-08
 -1       159-2.02474E-05-6.28585E-04-1.47423E-04
 -1       160 2.09461E-08-2.43962E-04 1.30754E-08
 -1       182-6.02366E-06-1.17220E-03-1.74772E-04
 -1       183-1.00399E-07-1.40205E-03-1.83356E-04
 -1       184 5.91736E-06-1.17223E-03-1.74722E-04
 -1       185 3.61467E-09-1.03176E-03-3.30722E-04
 -1       186 3.09036E-06-7.59937E-04-3.67254E-04
 -1       187-2.42725E-08-7.04638E-04-3.74387E-04
 -1       188-3.10328E-06-7.59946E-04-3.67252E-04
 -1       189 4.87401E-09-2.97374E-04-2.18729E-04
 -1       211-1.00616E-04-1.51811E-03-8.23459E-05
 -1       212 9.44644E-07-1.34487E-03-5.38896E-08
 -1       213 9.89333E-05-1.52000E-03 8.23892E-05
 -1       214 5.86513E-08-1.11488E-03 2.62852E-07
 -1       215 2.02383E-05-6.28569E-04-1.47423E-04
 -1       216-1.89330E-07-6.41558E-04 9.03254E-08
 -1       217-1.98939E-05-6.27987E-04 1.47383E-04
 -1       218-2.31886E-08-2.43962E-04 1.44868E-08
 -1       250-2.26888E-08-1.51392E-03 8.17987E-05
 -1       251-3.78871E-07-9.57921E-04-1.16204E-07
 -1       252 4.89323E-08-1.22238E-03 4.14027E-09
 -1       253 3.75690E-07-9.57948E-04-3.41248E-08
 -1       254-3.39293E-08-1.51500E-03-8.17674E-05
 -1       255-2.30360E-08-1.08990E-03-1.52495E-08
 -1       256-6.39799E-09-6.20510E-04 1.64271E-04
 -1       257 9.91717E-08-7.24435E-04 8.82469E-09
 -1       258 8.19900E-09-6.43329E-04-6.16141E-09
 -1       259-1.07351E-07-7.24443E-04-1.40747E-08
 -1       260-6.59538E-09-6.20163E-04-1.64263E-04
 -1       261-7.04853E-09-2.76072E-04-1.03592E-08
 -3
    1PSTEP                         4           4           1          
  100CL  104 2.00000E-02          81                     1    4           1
 -4  DISP        4    1
 -5  D1          1    2    1    0
 -5  D2          1    2    2    0
 -5  D3          1    2    3    0
 -5  ALL         1    2    0    0    1ALL
 -1         5 0.00000E+00 0.00000E+00 0.00000E+00
 -1         6 0.00000E+00 0.00000E+00 0.00000E+00
 -1         7 0.00000E+00 0.00000E+00 0.00000E+00
 -1         8 0.00000E+00 0.00000E+00 0.00000E+00
 -1        21 0.00000E+00 0.00000E+00 0.00000E+00
 -1        22 0.00000E+00 0.00000E+00 0.00000E+00
 -1        23 0.00000E+00 0.00000E+00 0.00000E+00
 -1        24 0.00000E+00 0.00000E+00 0.00000E+00
 -1        25 0.00000E+00 0.00000E+00 0.00000E+00
 -1        26 0.00000E+00 0.00000E+00 0.00000E+00
 -1        27 0.00000E+00 0.00000E+00 0.00000E+00
 -1        28 0.00000E+00 0.00000E+00 0.00000E+00
 -1        29 0.00000E+00 0.00000E+00 0.00000E+00
 -1        30 0.00000E+00 0.00000E+00 0.00000E+00
 -1        31 0.00000E+00 0.00000E+00 0.00000E+00
 -1        32 0.00000E+00 0.00000E+00 0.00000E+00
 -1        44-8.79806E-05 9.94397E-04-1.43696E-04
 -1        45-1.91178E-05 7.71125E-04-2.31700E-04
 -1        46 2.41246E-05 5.59891E-04-2.65721E-04
 -1        47-3.39969E-05 2.26426E-04-1.74534E-04
 -1        48 3.39882E-05 2.26415E-04-1.74493E-04
 -1        49-2.41122E-05 5.59869E-04-2.65664E-04
 -1        50 1.89718E-05 7.71146E-04-2.31716E-04
 -1        51 8.78898E-05 9.94507E-04-1.43729E-04
 -1        74 9.22700E-05 9.90607E-04 1.43743E-04
 -1        75 2.14114E-05 7.68780E-04 2.31699E-04
 -1        76-2.51451E-05 5.60856E-04 2.65627E-04
 -1        77 3.32936E-05 2.27068E-04 1.74489E-04
 -1        89-9.24347E-05 9.90448E-04 1.43737E-04
 -1        90-2.15636E-05 7.68754E-04 2.31693E-04
 -1        91 2.51429E-05 5.60863E-04 2.65681E-04
 -1        92-3.33068E-05 2.27076E-04 1.74530E-04
 -1        98 0.00000E+00 0.00000E+00 0.00000E+00
 -1        99 0.00000E+00 0.00000E+00 0.00000E+00
 -1       100 0.00000E+00 0.00000E+00 0.00000E+00
 -1       101 0.00000E+00 0.00000E+00 0.00000E+00
 -1       102 0.00000E+00 0.00000E+00 0.00000E+00
 -1       124 1.16234E-06 9.07463E-04-1.35363E-04
 -1       125-1.29065E-07 1.08872E-03-1.42046E-04
 -1       126-1.31512E-06 9.07472E-04-1.35436E-04
 -1       127-1.61335E-08 7.99502E-04-2.55975E-04
 -1       128-1.64533E-06 5.90063E-04-2.84871E-04
 -1       129-4.21900E-08 5.46941E-04-2.90031E-04
 -1       130 1.60311E-06 5.90062E-04-2.84877E-04
 -1       131 1.85458E-09 2.30957E-04-1.69747E-04
 -1       153 7.47672E-05 1.17854E-03-6.38279E-05
 -1       154 9.23430E-07 1.03991E-03 8.76004E-08
 -1       155-7.64615E-05 1.17498E-03 6.37628E-05
 -1       156-1.12548E-08 8.65126E-04-2.72329E-07
 -1       157-1.49693E-05 4.86661E-04-1.14429E-04
 -1       158-2.24808E-07 4.97196E-04-1.10283E-07
 -1       159 1.52877E-05 4.87504E-04 1.14443E-04
 -1       160-1.36674E-08 1.89438E-04-1.71440E-08
 -1       182 5.02552E-06 9.08811E-04 1.35379E-04
 -1       183-1.47620E-07 1.08750E-03 1.42037E-04
 -1       184-5.23022E-06 9.08793E-04 1.35438E-04
 -1       185-2.77202E-08 7.99827E-04 2.56476E-04
 -1       186-2.52225E-06 5.89791E-04 2.84832E-04
 -1       187-4.35186E-08 5.47088E-04 2.90226E-04
 -1       188 2.47108E-06 5.89783E-04 2.84843E-04
 -1       189-5.97289E-10 2.30864E-04 1.69754E-04
 -1       211 7.63801E-05 1.17487E-03 6.38263E-05
 -1       212-9.98778E-07 1.03991E-03-1.76826E-08
 -1       213-7.48038E-05 1.17863E-03-6.38003E-05
 -1       214-5.74135E-08 8.65110E-04-2.42555E-07
 -1       215-1.53228E-05 4.87515E-04 1.14465E-04
 -1       216 1.73175E-07 4.97198E-04-6.40659E-08
 -1       217 1.49401E-05 4.86643E-04-1.14402E-04
 -1       218-1.23563E-09 1.89435E-04 1.48883E-09
 -1       250-7.34547E-08 1.17545E-03-6.33769E-05
 -1       251 1.09739E-06 7.43120E-04 1.89070E-08
 -1       252 3.94331E-09 9.49641E-04-3.44727E-08
 -1       253-1.14633E-06 7.43116E-04 8.04490E-08
 -1       254-8.25149E-08 1.17787E-03 6.32838E-05
 -1       255-3.89288E-08 8.44929E-04 1.55665E-08
 -1       256-2.59517E-08 4.81798E-04-1.27294E-04
 -1       257-2.70025E-07 5.61854E-04 1.72480E-08
 -1       258-1.33488E-08 4.99746E-04 4.27163E-09
 -1       259 2.36133E-07 5.61854E-04-8.40554E-09
 -1       260-2.66581E-08 4.81210E-04 1.27280E-04
 -1       261-1.07010E-08 2.14241E-04 3.87767E-09
 -3
    1PSTEP                         5           5           1          
  100CL  105 2.50000E-02          81                     1    5           1
 -4  DISP        4    1
 -5  D1          1    2    1    0
 -5  D2          1    2    2    0
 -5  D3          1    2    3    0
 -5  ALL         1    2    0    0    1ALL
 -1         5 0.00000E+00 0.00000E+00 0.00000E+00
 -1         6 0.00000E+00 0.00000E+00 0.00000E+00
 -1         7 0.00000E+00 0.00000E+00 0.00000E+00
 -1         8 0.00000E+00 0.00000E+00 0.00000E+00
 -1        21 0.00000E+00 0.00000E+00 0.00000E+00
 -1        22 0.00000E+00 0.00000E+00 0.00000E+00
 -1        23 0.00000E+00 0.00000E+00 0.00000E+00
 -1        24 0.00000E+00 0.00000E+00 0.00000E+00
 -1        25 0.00000E+00 0.00000E+00 0.00000E+00
 -1        26 0.00000E+00 0.00000E+00 0.00000E+00
 -1        27 0.00000E+00 0.00000E+00 0.00000E+00
 -1        28 0.00000E+00 0.00000E+00 0.00000E+00
 -1        29 0.00000E+00 0.00000E+00 0.00000E+00
 -1        30 0.00000E+00 0.00000E+00 0.00000E+00
 -1        31 0.00000E+00 0.00000E+00 0.00000E+00
 -1        32 0.00000E+00 0.00000E+00 0.00000E+00
 -1        44 6.79453E-05-7.49326E-04 1.08627E-04
 -1        45 1.50108E-05-5.81397E-04 1.74947E-04
 -1        46-1.85611E-05-4.23322E-04 2.00606E-04
 -1        47 2.54680E-05-1.71227E-04 1.31816E-04
 -1        48-2.54632E-05-1.71225E-04 1.31828E-04
 -1        49 1.86011E-05-4.23334E-04 2.00623E-04
 -1        50-1.50430E-05-5.81369E-04 1.74906E-04
 -1        51-6.78932E-05-7.49309E-04 1.08592E-04
 -1        74-7.03472E-05-7.46991E-04-1.08609E-04
 -1        75-1.63805E-05-5.80058E-04-1.74933E-04
 -1        76 1.91948E-05-4.23910E-04-2.00600E-04
 -1        77-2.50757E-05-1.71596E-04-1.31814E-04
 -1        89 7.02935E-05-7.47076E-04-1.08605E-04
 -1        90 1.63906E-05-5.80068E-04-1.74956E-04
 -1        91-1.91706E-05-4.23904E-04-2.00611E-04
 -1        92 2.50823E-05-1.71593E-04-1.31814E-04
 -1        98 0.00000E+00 0.00000E+00 0.00000E+00
 -1        99 0.00000E+00 0.00000E+00 0.00000E+00
 -1       100 0.00000E+00 0.00000E+00 0.00000E+00
 -1       101 0.00000E+00 0.00000E+00 0.00000E+00
 -1       102 0.00000E+00 0.00000E+00 0.00000E+00
 -1       124-1.20177E-06-6.85706E-04 1.02342E-04
 -1       125-3.07110E-08-8.21899E-04 1.07276E-04
 -1       126 1.20798E-06-6.85676E-04 1.02272E-04
 -1       127 2.43912E-08-6.03987E-04 1.93465E-04
 -1       128 1.29053E-06-4.45446E-04 2.15126E-04
 -1       129-1.17598E-08-4.12838E-04 2.19092E-04
 -1       130-1.28596E-06-4.45446E-04 2.15138E-04
 -1       131 4.77040E-09-1.74339E-04 1.28159E-04
 -1       153-5.71082E-05-8.90044E-04 4.82319E-05
 -1       154-4.79110E-07-7.85788E-04 1.92061E-09
 -1       155 5.79660E-05-8.88175E-04-4.82155E-05
 -1       156 5.11578E-08-6.53267E-04 1.38881E-07
 -1       157 1.14268E-05-3.67635E-04 8.63800E-05
 -1       158 7.02257E-08-3.75516E-04 5.83084E-08
 -1       159-1.16022E-05-3.68074E-04-8.63887E-05
 -1       160-3.96049E-09-1.43014E-04 1.21101E-08
 -1       182-3.12210E-06-6.86455E-04-1.02247E-04
 -1       183-1.78637E-08-8.21053E-04-1.07214E-04
 -1       184 3.09425E-06-6.86474E-04-1.02280E-04
 -1       185 5.15816E-09-6.04110E-04-1.93756E-04
 -1       186 1.74139E-06-4.45269E-04-2.15113E-04
 -1       187 5.26824E-09-4.12937E-04-2.19193E-04
 -1       188-1.72836E-06-4.45271E-04-2.15112E-04
 -1       189 4.82549E-09-1.74311E-04-1.28162E-04
 -1       211-5.79996E-05-8.88233E-04-4.81939E-05
 -1       212 4.38824E-07-7.85778E-04-3.26477E-08
 -1       213 5.71417E-05-8.90007E-04 4.82559E-05
 -1       214 2.75633E-09-6.53270E-04 1.37179E-07
 -1       215 1.16042E-05-3.68060E-04-8.64061E-05
 -1       216-8.58176E-08-3.75503E-04 5.33248E-08
 -1       217-1.14197E-05-3.67639E-04 8.63728E-05
 -1       218 1.15800E-08-1.43014E-04-3.21301E-10
 -1       250 1.35354E-08-8.87202E-04 4.78647E-05
 -1       251-4.83488E-07-5.61057E-04-9.27584E-08
 -1       252 7.11227E-08-7.17128E-04-3.23785E-08
 -1       253 5.29654E-07-5.61067E-04-1.16821E-08
 -1       254 2.37631E-08-8.88312E-04-4.78382E-05
 -1       255-1.93479E-09-6.38141E-04 1.22131E-08
 -1       256 6.69794E-09-3.63744E-04 9.61736E-05
 -1       257 1.29549E-07-4.24306E-04 8.64263E-09
 -1       258 2.18787E-08-3.77223E-04 3.04773E-09
 -1       259-1.13030E-07-4.24311E-04-3.92819E-09
 -1       260 1.40281E-08-3.63458E-04-9.61587E-05
 -1       261-2.25527E-09-1.61726E-04-4.45299E-09
 -3
    1PSTEP                         6           6           1          
  100CL  106 3.00000E-02          81                     1    6           1
 -4  DISP        4    1
 -5  D1          1    2    1    0
 -5  D2          1    2    2    0
 -5  D3          1    2    3    0
 -5  ALL         1    2    0    0    1ALL
 -1         5 0.00000E+00 0.00000E+00 0.00000E+00
 -1         6 0.00000E+00 0.00000E+00 0.00000E+00
 -1         7 0.00000E+00 0.00000E+00 0.00000E+00
 -1         8 0.00000E+00 0.00000E+00 0.00000E+00
 -1        21 0.00000E+00 0.00000E+00 0.00000E+00
 -1        22 0.00000E+00 0.00000E+00 0.00000E+00
 -1        23 0.00000E+00 0.00000E+00 0.00000E+00
 -1        24 0.00000E+00 0.00000E+00 0.00000E+00
 -1        25 0.00000E+00 0.00000E+00 0.00000E+00
 -1        26 0.00000E+00 0.00000E+00 0.00000E+00
 -1        27 0.00000E+00 0.00000E+00 0.00000E+00
 -1        28 0.00000E+00 0.00000E+00 0.00000E+00
 -1        29 0.00000E+00 0.00000E+00 0.00000E+00
 -1        30 0.00000E+00 0.00000E+00 0.00000E+00
 -1        31 0.00000E+00 0.00000E+00 0.00000E+00
 -1        32 0.00000E+00 0.00000E+00 0.00000E+00
 -1        44-4.87630E-05 5.43692E-04-7.86259E-05
 -1        45-1.07240E-05 4.21734E-04-1.26779E-04
 -1        46 1.32827E-05 3.06555E-04-1.45412E-04
 -1        47-1.85236E-05 1.24022E-04-9.55330E-05