    1C
    1UUSER                                                              
    1UDATE              15.july.2018                                    
    1UTIME              20:09:20                                        
    1UHOST                                                              
    1UPGM               CalculiX                                        
    1UVERSION           Version 2.13                             
    1UCOMPILETIME       jue jun 14 00:40:39 CEST 2018                    
    1UDIR                                                               
    1UDBN                                                               
    1UMAT    1EL                                                        
    2C                            81                                     1
 -1         5 0.00000E+00 0.00000E+00 8.00000E+00
 -1         6 1.00000E+00 0.00000E+00 8.00000E+00
 -1         7 1.00000E+00 1.00000E+00 8.00000E+00
 -1         8 0.00000E+00 1.00000E+00 8.00000E+00
 -1        21 2.50000E-01 0.00000E+00 8.00000E+00
 -1        22 5.00000E-01 0.00000E+00 8.00000E+00
 -1        23 7.50000E-01 0.00000E+00 8.00000E+00
 -1        24 1.00000E+00 2.50000E-01 8.00000E+00
 -1        25 1.00000E+00 5.00000E-01 8.00000E+00
 -1        26 1.00000E+00 7.50000E-01 8.00000E+00
 -1        27 7.50000E-01 1.00000E+00 8.00000E+00
 -1        28 5.00000E-01 1.00000E+00 8.00000E+00
 -1        29 2.50000E-01 1.00000E+00 8.00000E+00
 -1        30 0.00000E+00 7.50000E-01 8.00000E+00
 -1        31 0.00000E+00 5.00000E-01 8.00000E+00
 -1        32 0.00000E+00 2.50000E-01 8.00000E+00
 -1        44 1.00000E+00 0.00000E+00 6.00000E+00
 -1        45 1.00000E+00 0.00000E+00 6.50000E+00
 -1        46 1.00000E+00 0.00000E+00 7.00000E+00
 -1        47 1.00000E+00 0.00000E+00 7.50000E+00
 -1        48 0.00000E+00 0.00000E+00 7.50000E+00
 -1        49 0.00000E+00 0.00000E+00 7.00000E+00
 -1        50 0.00000E+00 0.00000E+00 6.50000E+00
 -1        51 0.00000E+00 0.00000E+00 6.00000E+00
 -1        74 1.00000E+00 1.00000E+00 6.00000E+00
 -1        75 1.00000E+00 1.00000E+00 6.50000E+00
 -1        76 1.00000E+00 1.00000E+00 7.00000E+00
 -1        77 1.00000E+00 1.00000E+00 7.50000E+00
 -1        89 0.00000E+00 1.00000E+00 6.00000E+00
 -1        90 0.00000E+00 1.00000E+00 6.50000E+00
 -1        91 0.00000E+00 1.00000E+00 7.00000E+00
 -1        92 0.00000E+00 1.00000E+00 7.50000E+00
 -1        98 5.00000E-01 2.50000E-01 8.00000E+00
 -1        99 2.50000E-01 5.00000E-01 8.00000E+00
 -1       100 5.00000E-01 5.00000E-01 8.00000E+00
 -1       101 7.50000E-01 5.00000E-01 8.00000E+00
 -1       102 5.00000E-01 7.50000E-01 8.00000E+00
 -1       124 2.50000E-01 0.00000E+00 6.00000E+00
 -1       125 5.00000E-01 0.00000E+00 6.00000E+00
 -1       126 7.50000E-01 0.00000E+00 6.00000E+00
 -1       127 5.00000E-01 0.00000E+00 6.50000E+00
 -1       128 2.50000E-01 0.00000E+00 7.00000E+00
 -1       129 5.00000E-01 0.00000E+00 7.00000E+00
 -1       130 7.50000E-01 0.00000E+00 7.00000E+00
 -1       131 5.00000E-01 0.00000E+00 7.50000E+00
 -1       153 1.00000E+00 2.50000E-01 6.00000E+00
 -1       154 1.00000E+00 5.00000E-01 6.00000E+00
 -1       155 1.00000E+00 7.50000E-01 6.00000E+00
 -1       156 1.00000E+00 5.00000E-01 6.50000E+00
 -1       157 1.00000E+00 2.50000E-01 7.00000E+00
 -1       158 1.00000E+00 5.00000E-01 7.00000E+00
 -1       159 1.00000E+00 7.50000E-01 7.00000E+00
 -1       160 1.00000E+00 5.00000E-01 7.50000E+00
 -1       182 7.50000E-01 1.00000E+00 6.00000E+00
 -1       183 5.00000E-01 1.00000E+00 6.00000E+00
 -1       184 2.50000E-01 1.00000E+00 6.00000E+00
 -1       185 5.00000E-01 1.00000E+00 6.50000E+00
 -1       186 7.50000E-01 1.00000E+00 7.00000E+00
 -1       187 5.00000E-01 1.00000E+00 7.00000E+00
 -1       188 2.50000E-01 1.00000E+00 7.00000E+00
 -1       189 5.00000E-01 1.00000E+00 7.50000E+00
 -1       211 0.00000E+00 7.50000E-01 6.00000E+00
 -1       212 0.00000E+00 5.00000E-01 6.00000E+00
 -1       213 0.00000E+00 2.50000E-01 6.00000E+00
 -1       214 0.00000E+00 5.00000E-01 6.50000E+00
 -1       215 0.00000E+00 7.50000E-01 7.00000E+00
 -1       216 0.00000E+00 5.00000E-01 7.00000E+00
 -1       217 0.00000E+00 2.50000E-01 7.00000E+00
 -1       218 0.00000E+00 5.00000E-01 7.50000E+00
 -1       250 5.00000E-01 2.50000E-01 6.00000E+00
 -1       251 2.50000E-01 5.00000E-01 6.00000E+00
 -1       252 5.00000E-01 5.00000E-01 6.00000E+00
 -1       253 7.50000E-01 5.00000E-01 6.00000E+00
 -1       254 5.00000E-01 7.50000E-01 6.00000E+00
 -1       255 5.00000E-01 5.00000E-01 6.50000E+00
 -1       256 5.00000E-01 2.50000E-01 7.00000E+00
 -1       257 2.50000E-01 5.00000E-01 7.00000E+00
 -1       258 5.00000E-01 5.00000E-01 7.00000E+00
 -1       259 7.50000E-01 5.00000E-01 7.00000E+00
 -1       260 5.00000E-01 7.50000E-01 7.00000E+00
 -1       261 5.00000E-01 5.00000E-01 7.50000E+00
 -3
    3C                             8                                     1
 -1        25    4    0    1
 -2        51       125       252       212        49       129       258       216       124       250
 -2       251       213        50       127       255       214       128       256       257       217
 -1        26    4    0    1
 -2       125        44       154       252       129        46       158       258       126       153
 -2       253       250       127        45       156       255       130       157       259       256
 -1        27    4    0    1
 -2       212       252       183        89       216       258       187        91       251       254
 -2       184       211       214       255       185        90       257       260       188       215
 -1        28    4    0    1
 -2       252       154        74       183       258       158        76       187       253       155
 -2       182       254       255       156        75       185       259       159       186       260
 -1        29    4    0    1
 -2        49       129       258       216         5        22       100        31       128       256
 -2       257       217        48       131       261       218        21        98        99        32
 -1        30    4    0    1
 -2       129        46       158       258        22         6        25       100       130       157
 -2       259       256       131        47       160       261        23        24       101        98
 -1        31    4    0    1
 -2       216       258       187        91        31       100        28         8       257       260
 -2       188       215       218       261       189        92        99       102        29        30
 -1        32    4    0    1
 -2       258       158        76       187       100        25         7        28       259       159
 -2       186       260       261       160        77       189       101        26        27       102
 -3
    1PSTEP                         1           1           1          
  100CL  101 5.00000E-03          81                     1    1           1
 -4  DISP        4    1
 -5  D1          1    2    1    0
 -5  D2          1    2    2    0
 -5  D3          1    2    3    0
 -5  ALL         1    2    0    0    1ALL
 -1         5 0.00000E+00 0.00000E+00 0.00000E+00
 -1         6 0.00000E+00 0.00000E+00 0.00000E+00
 -1         7 0.00000E+00 0.00000E+00 0.00000E+00
 -1         8 0.00000E+00 0.00000E+00 0.00000E+00
 -1        21 0.00000E+00 0.00000E+00 0.00000E+00
 -1        22 0.00000E+00 0.00000E+00 0.00000E+00
 -1        23 0.00000E+00 0.00000E+00 0.00000E+00
 -1        24 0.00000E+00 0.00000E+00 0.00000E+00
 -1        25 0.00000E+00 0.00000E+00 0.00000E+00
 -1        26 0.00000E+00 0.00000E+00 0.00000E+00
 -1        27 0.00000E+00 0.00000E+00 0.00000E+00
 -1        28 0.00000E+00 0.00000E+00 0.00000E+00
 -1        29 0.00000E+00 0.00000E+00 0.00000E+00
 -1        30 0.00000E+00 0.00000E+00 0.00000E+00
 -1        31 0.00000E+00 0.00000E+00 0.00000E+00
 -1        32 0.00000E+00 0.00000E+00 0.00000E+00
 -1        44-5.71429E-05-3.46272E-03 4.48648E-04
 -1        45 5.72952E-05-2.56098E-03 7.85235E-04
 -1        46-4.83901E-05-1.79765E-03 9.49435E-04
 -1        47 1.30753E-04-6.75649E-04 5.43529E-04
 -1        48-1.30759E-04-6.75654E-04 5.43542E-04
 -1        49 4.83562E-05-1.79766E-03 9.49465E-04
 -1        50-5.73596E-05-2.56098E-03 7.85291E-04
 -1        51 5.69834E-05-3.46275E-03 4.48751E-04
 -1        74 3.12313E-04-4.40110E-03-4.94879E-04
 -1        75 1.87623E-04-2.96695E-03-7.84805E-04
 -1        76-1.08173E-04-1.60176E-03-9.50184E-04
 -1        77-2.06888E-04-5.28590E-04-5.58484E-04
 -1        89-3.12474E-04-4.40107E-03-4.94775E-04
 -1        90-1.87686E-04-2.96695E-03-7.84749E-04
 -1        91 1.08138E-04-1.60175E-03-9.50155E-04
 -1        92 2.06882E-04-5.28585E-04-5.58472E-04
 -1        98 0.00000E+00 0.00000E+00 0.00000E+00
 -1        99 0.00000E+00 0.00000E+00 0.00000E+00
 -1       100 0.00000E+00 0.00000E+00 0.00000E+00
 -1       101 0.00000E+00 0.00000E+00 0.00000E+00
 -1       102 0.00000E+00 0.00000E+00 0.00000E+00
 -1       124 1.51344E-04-2.96734E-03 4.29983E-04
 -1       125-6.03595E-08-3.59112E-03 4.48944E-04
 -1       126-1.51481E-04-2.96733E-03 4.29946E-04
 -1       127-3.83175E-08-2.56420E-03 9.04153E-04
 -1       128-9.62634E-06-1.95305E-03 9.48445E-04
 -1       129-1.00997E-08-1.81388E-03 9.41768E-04
 -1       130 9.59961E-06-1.95305E-03 9.48427E-04
 -1       131-1.91774E-09-7.36411E-04 5.56349E-04
 -1       153 6.83224E-05-3.64027E-03 1.91419E-04
 -1       154-1.19808E-04-2.50605E-03-2.10194E-05
 -1       155-6.29141E-05-3.89007E-03-2.38137E-04
 -1       156-1.19344E-04-2.79025E-03-6.41662E-05
 -1       157-2.03595E-05-1.50919E-03 3.92268E-04
 -1       158 8.78931E-05-1.56744E-03-2.92676E-05
 -1       159 4.63995E-05-1.47660E-03-4.11075E-04
 -1       160 3.95710E-05-6.56510E-04 4.88853E-06
 -1       182 1.15708E-04-2.56729E-03-4.71437E-04
 -1       183-5.81228E-08-4.35114E-03-4.76639E-04
 -1       184-1.15843E-04-2.56728E-03-4.71403E-04
 -1       185-3.90613E-08-2.83350E-03-8.75004E-04
 -1       186-4.40471E-05-2.16174E-03-9.82887E-04
 -1       187-9.48526E-09-1.83235E-03-9.64234E-04
 -1       188 4.40205E-05-2.16174E-03-9.82868E-04
 -1       189-1.99851E-09-7.20334E-04-5.64583E-04
 -1       211 6.27263E-05-3.89006E-03-2.38043E-04
 -1       212 1.19604E-04-2.50606E-03-2.09102E-05
 -1       213-6.85091E-05-3.64028E-03 1.91515E-04
 -1       214 1.19288E-04-2.79025E-03-6.41068E-05
 -1       215-4.64400E-05-1.47659E-03-4.11043E-04
 -1       216-8.79395E-05-1.56744E-03-2.92389E-05
 -1       217 2.03196E-05-1.50920E-03 3.92300E-04
 -1       218-3.95786E-05-6.56510E-04 4.89649E-06
 -1       250-5.79986E-08-4.07945E-03 1.74738E-04
 -1       251 2.95286E-05-2.57188E-03-1.04143E-05
 -1       252-5.50699E-08-3.12551E-03-1.52135E-05
 -1       253-2.96815E-05-2.57188E-03-1.04272E-05
 -1       254-5.67956E-08-4.40924E-03-2.54099E-04
 -1       255-4.44959E-08-2.60068E-03-3.18684E-05
 -1       256-8.66995E-09-1.60788E-03 3.95998E-04
 -1       257-4.08033E-05-1.75001E-03-1.19914E-05
 -1       258-6.59879E-09-1.78993E-03-1.45951E-05
 -1       259 4.07741E-05-1.75001E-03-1.20150E-05
 -1       260-8.38049E-09-1.62327E-03-4.18579E-04
 -1       261-4.09422E-09-7.16891E-04-1.96382E-06
 -3
    1PSTEP                         2           2           1          
  100CL  102 1.00000E-02          81                     1    2           1
 -4  DISP        4    1
 -5  D1          1    2    1    0
 -5  D2          1    2    2    0
 -5  D3          1    2    3    0
 -5  ALL         1    2    0    0    1ALL
 -1         5 0.00000E+00 0.00000E+00 0.00000E+00
 -1         6 0.00000E+00 0.00000E+00 0.00000E+00
 -1         7 0.00000E+00 0.00000E+00 0.00000E+00
 -1         8 0.00000E+00 0.00000E+00 0.00000E+00
 -1        21 0.00000E+00 0.00000E+00 0.00000E+00
 -1        22 0.00000E+00 0.00000E+00 0.00000E+00
 -1        23 0.00000E+00 0.00000E+00 0.00000E+00
 -1        24 0.00000E+00 0.00000E+00 0.00000E+00
 -1        25 0.00000E+00 0.00000E+00 0.00000E+00
 -1        26 0.00000E+00 0.00000E+00 0.00000E+00
 -1        27 0.00000E+00 0.00000E+00 0.00000E+00
 -1        28 0.00000E+00 0.00000E+00 0.00000E+00
 -1        29 0.00000E+00 0.00000E+00 0.00000E+00
 -1        30 0.00000E+00 0.00000E+00 0.00000E+00
 -1        31 0.00000E+00 0.00000E+00 0.00000E+00
 -1        32 0.00000E+00 0.00000E+00 0.00000E+00
 -1        44-1.44636E-04 1.61488E-03-2.34122E-04
 -1        45-3.18951E-05 1.25213E-03-3.77179E-04
 -1        46 3.97751E-05 9.12266E-04-4.32397E-04
 -1        47-5.49495E-05 3.68692E-04-2.83839E-04
 -1        48 5.49476E-05 3.68688E-04-2.83812E-04
 -1        49-3.98079E-05 9.12214E-04-4.32344E-04
 -1        50 3.17841E-05 1.25219E-03-3.77105E-04
 -1        51 1.44222E-04 1.61485E-03-2.33792E-04
 -1        74 1.48884E-04 1.60970E-03 2.34047E-04
 -1        75 3.48299E-05 1.24899E-03 3.77364E-04
 -1        76-4.08746E-05 9.13704E-04 4.32507E-04
 -1        77 5.41935E-05 3.69496E-04 2.83861E-04
 -1        89-1.48913E-04 1.60938E-03 2.33796E-04
 -1        90-3.49994E-05 1.24899E-03 3.77296E-04
 -1        91 4.09101E-05 9.13693E-04 4.32570E-04
 -1        92-5.42034E-05 3.69512E-04 2.83912E-04
 -1        98 0.00000E+00 0.00000E+00 0.00000E+00
 -1        99 0.00000E+00 0.00000E+00 0.00000E+00
 -1       100 0.00000E+00 0.00000E+00 0.00000E+00
 -1       101 0.00000E+00 0.00000E+00 0.00000E+00
 -1       102 0.00000E+00 0.00000E+00 0.00000E+00
 -1       124 1.10354E-06 1.47713E-03-2.20183E-04
 -1       125-1.52494E-07 1.76955E-03-2.31358E-04
 -1       126-1.41914E-06 1.47722E-03-2.20337E-04
 -1       127-3.37793E-08 1.30062E-03-4.16586E-04
 -1       128-2.60326E-06 9.59564E-04-4.63428E-04
 -1       129-2.83217E-08 8.89270E-04-4.71756E-04
 -1       130 2.55052E-06 9.59574E-04-4.63459E-04
 -1       131 6.19243E-10 3.75527E-04-2.75996E-04
 -1       153 1.21204E-04 1.91833E-03-1.03961E-04
 -1       154 6.26716E-07 1.69009E-03 2.41878E-07
 -1       155-1.23272E-04 1.91300E-03 1.03957E-04
 -1       156-2.54948E-07 1.40659E-03-2.98923E-07
 -1       157-2.42145E-05 7.91666E-04-1.86048E-04
 -1       158-1.93562E-07 8.09020E-04-7.86705E-08
 -1       159 2.43684E-05 7.93024E-04 1.86223E-04
 -1       160 2.48058E-08 3.08269E-04-1.39704E-08
 -1       182 6.36618E-06 1.47937E-03 2.20512E-04
 -1       183-1.37877E-07 1.76737E-03 2.31283E-04
 -1       184-6.50159E-06 1.47927E-03 2.20479E-04
 -1       185-2.92177E-08 1.30097E-03 4.17377E-04
 -1       186-3.80023E-06 9.59686E-04 4.63504E-04
 -1       187-3.88221E-08 8.90653E-04 4.72172E-04
 -1       188 3.77226E-06 9.59671E-04 4.63509E-04
 -1       189 4.38539E-09 3.75760E-04 2.76116E-04
 -1       211 1.23215E-04 1.91281E-03 1.03966E-04
 -1       212-8.12927E-07 1.69009E-03 1.93432E-07
 -1       213-1.21470E-04 1.91837E-03-1.03746E-04
 -1       214 2.07099E-07 1.40659E-03-2.46871E-07
 -1       215-2.43970E-05 7.93032E-04 1.86237E-04
 -1       216 1.25686E-07 8.09033E-04-3.13581E-08
 -1       217 2.41573E-05 7.91638E-04-1.86012E-04
 -1       218-3.39675E-08 3.08267E-04-2.69502E-09
 -1       250-8.50639E-08 1.90918E-03-1.03208E-04
 -1       251 2.03145E-06 1.20881E-03 1.79810E-07
 -1       252 1.99958E-08 1.54424E-03-7.47652E-08
 -1       253-2.11633E-06 1.20883E-03 2.69193E-07
 -1       254-6.09566E-08 1.91291E-03 1.03185E-04
 -1       255-5.25429E-08 1.37467E-03 1.06057E-07
 -1       256-9.35492E-09 7.83745E-04-2.07070E-04
 -1       257-4.45535E-07 9.13643E-04 7.73178E-08
 -1       258 1.06820E-09 8.12510E-04 8.50934E-08
 -1       259 4.18319E-07 9.13631E-04 3.82006E-08
 -1       260-1.98729E-08 7.83354E-04 2.07184E-04
 -1       261-1.07645E-08 3.48282E-04-1.48678E-08
 -3
    1PSTEP                         3           3           1          
  100CL  103 1.50000E-02          81                     1    3           1
 -4  DISP        4    1
 -5  D1          1    2    1    0
 -5  D2          1    2    2    0
 -5  D3          1    2    3    0
 -5  ALL         1    2    0    0    1ALL
 -1         5 0.00000E+00 0.00000E+00 0.00000E+00
 -1         6 0.00000E+00 0.00000E+00 0.00000E+00
 -1         7 0.00000E+00 0.00000E+00 0.00000E+00
 -1         8 0.00000E+00 0.00000E+00 0.00000E+00
 -1        21 0.00000E+00 0.00000E+00 0.00000E+00
 -1        22 0.00000E+00 0.00000E+00 0.00000E+00
 -1        23 0.00000E+00 0.00000E+00 0.00000E+00
 -1        24 0.00000E+00 0.00000E+00 0.00000E+00
 -1        25 0.00000E+00 0.00000E+00 0.00000E+00
 -1        26 0.00000E+00 0.00000E+00 0.00000E+00
 -1        27 0.00000E+00 0.00000E+00 0.00000E+00
 -1        28 0.00000E+00 0.00000E+00 0.00000E+00
 -1        29 0.00000E+00 0.00000E+00 0.00000E+00
 -1        30 0.00000E+00 0.00000E+00 0.00000E+00
 -1        31 0.00000E+00 0.00000E+00 0.00000E+00
 -1        32 0.00000E+00 0.00000E+00 0.00000E+00
 -1        44 1.19430E-04-1.27461E-03 1.85219E-04
 -1        45 2.76119E-05-9.89780E-04 2.98548E-04
 -1        46-3.25997E-05-7.23628E-04 3.42321E-04
 -1        47 4.28571E-05-2.92956E-04 2.25062E-04
 -1        48-4.28423E-05-2.92943E-04 2.25006E-04
 -1        49 3.25936E-05-7.23609E-04 3.42243E-04
 -1        50-2.74157E-05-9.89805E-04 2.98547E-04
 -1        51-1.19283E-04-1.27473E-03 1.85214E-04
 -1        74-1.19198E-04-1.27507E-03-1.85392E-04
 -1        75-2.72647E-05-9.89740E-04-2.98822E-04
 -1        76 3.28406E-05-7.24077E-04-3.42230E-04
 -1        77-4.28472E-05-2.92962E-04-2.24966E-04
 -1        89 1.19338E-04-1.27487E-03-1.85318E-04
 -1        90 2.74535E-05-9.89711E-04-2.98801E-04
 -1        91-3.28413E-05-7.24089E-04-3.42292E-04
 -1        92 4.28645E-05-2.92974E-04-2.25014E-04
 -1        98 0.00000E+00 0.00000E+00 0.00000E+00
 -1        99 0.00000E+00 0.00000E+00 0.00000E+00
 -1       100 0.00000E+00 0.00000E+00 0.00000E+00
 -1       101 0.00000E+00 0.00000E+00 0.00000E+00
 -1       102 0.00000E+00 0.00000E+00 0.00000E+00
 -1       124-4.68638E-06-1.17137E-03 1.74513E-04
 -1       125 1.82656E-07-1.40108E-03 1.83148E-04
 -1       126 4.91453E-06-1.17139E-03 1.74647E-04
 -1       127 2.01221E-08-1.03101E-03 3.30296E-04
 -1       128 2.90731E-06-7.59857E-04 3.67043E-04
 -1       129 5.93060E-08-7.04524E-04 3.73959E-04
 -1       130-2.84372E-06-7.59851E-04 3.67052E-04
 -1       131-4.72719E-10-2.97435E-04 2.18644E-04
 -1       153-9.88361E-05-1.51688E-03 8.23615E-05
 -1       154 1.86375E-07-1.34179E-03-2.01416E-07
 -1       155 9.87652E-05-1.52015E-03-8.22637E-05
 -1       156 7.29324E-08-1.11399E-03 2.65413E-08
 -1       157 1.97300E-05-6.28430E-04 1.47317E-04
 -1       158-8.67028E-08-6.41635E-04 2.97350E-08
 -1       159-1.96731E-05-6.27939E-04-1.47335E-04
 -1       160 1.06263E-08-2.44214E-04 2.48235E-08
 -1       182-2.05859E-06-1.17149E-03-1.74566E-04
 -1       183 1.64720E-07-1.40082E-03-1.83240E-04
 -1       184 2.26892E-06-1.17146E-03-1.74599E-04
 -1       185 3.74667E-08-1.03110E-03-3.30237E-04
 -1       186 2.42543E-06-7.59866E-04-3.67081E-04
 -1       187 5.31546E-08-7.04267E-04-3.73999E-04
 -1       188-2.36547E-06-7.59858E-04-3.67092E-04
 -1       189 7.34585E-10-2.97493E-04-2.18682E-04
 -1       211-9.87046E-05-1.51999E-03-8.22810E-05
 -1       212-9.95537E-08-1.34177E-03-7.51334E-08
 -1       213 9.89043E-05-1.51697E-03 8.22853E-05
 -1       214 2.41770E-08-1.11400E-03-1.11146E-08
 -1       215 1.97159E-05-6.27952E-04-1.47367E-04
 -1       216 1.50841E-07-6.41633E-04-2.95045E-08
 -1       217-1.96909E-05-6.28411E-04 1.47280E-04
 -1       218 1.01797E-08-2.44214E-04-1.27717E-09
 -1       250 1.11225E-07-1.51332E-03 8.16389E-05
 -1       251 1.31060E-06-9.57744E-04-5.51315E-08
 -1       252 8.08356E-09-1.22174E-03 3.96332E-08
 -1       253-1.24064E-06-9.57761E-04-1.17800E-07
 -1       254 9.66104E-08-1.51040E-03-8.17889E-05
 -1       255 4.89287E-08-1.08929E-03-6.25257E-09
 -1       256 3.75408E-08-6.20333E-04 1.64191E-04
 -1       257-2.18808E-07-7.24058E-04-7.94502E-09
 -1       258 2.17206E-08-6.43331E-04-7.06986E-09
 -1       259 2.66348E-07-7.24058E-04 2.21508E-08
 -1       260 3.61452E-08-6.20832E-04-1.64182E-04
 -1       261 1.34680E-08-2.76017E-04-1.69244E-08
 -3
    1PSTEP                         4           4           1          
  100CL  104 2.00000E-02          81                     1    4           1
 -4  DISP        4    1
 -5  D1          1    2    1    0
 -5  D2          1    2    2    0
 -5  D3          1    2    3    0
 -5  ALL         1    2    0    0    1ALL
 -1         5 0.00000E+00 0.00000E+00 0.00000E+00
 -1         6 0.00000E+00 0.00000E+00 0.00000E+00
 -1         7 0.00000E+00 0.00000E+00 0.00000E+00
 -1         8 0.00000E+00 0.00000E+00 0.00000E+00
 -1        21 0.00000E+00 0.00000E+00 0.00000E+00
 -1        22 0.00000E+00 0.00000E+00 0.00000E+00
 -1        23 0.00000E+00 0.00000E+00 0.00000E+00
 -1        24 0.00000E+00 0.00000E+00 0.00000E+00
 -1        25 0.00000E+00 0.00000E+00 0.00000E+00
 -1        26 0.00000E+00 0.00000E+00 0.00000E+00
 -1        27 0.00000E+00 0.00000E+00 0.00000E+00
 -1        28 0.00000E+00 0.00000E+00 0.00000E+00
 -1        29 0.00000E+00 0.00000E+00 0.00000E+00
 -1        30 0.00000E+00 0.00000E+00 0.00000E+00
 -1        31 0.00000E+00 0.00000E+00 0.00000E+00
 -1        32 0.00000E+00 0.00000E+00 0.00000E+00
 -1        44-9.09047E-05 9.91952E-04-1.43886E-04
 -1        45-2.01128E-05 7.69910E-04-2.31829E-04
 -1        46 2.48835E-05 5.61045E-04-2.65645E-04
 -1        47-3.36255E-05 2.26980E-04-1.74669E-04
 -1        48 3.36370E-05 2.26978E-04-1.74649E-04
 -1        49-2.48328E-05 5.61018E-04-2.65622E-04
 -1        50 2.00650E-05 7.69961E-04-2.31900E-04
 -1        51 9.07753E-05 9.92131E-04-1.43894E-04
 -1        74 9.50115E-05 9.87922E-04 1.43891E-04
 -1        75 2.24551E-05 7.67604E-04 2.31829E-04
 -1        76-2.57852E-05 5.61934E-04 2.65597E-04
 -1        77 3.29696E-05 2.27638E-04 1.74654E-04
 -1        89-9.50640E-05 9.87785E-04 1.43878E-04
 -1        90-2.25186E-05 7.67563E-04 2.31771E-04
 -1        91 2.58586E-05 5.61959E-04 2.65618E-04
 -1        92-3.29587E-05 2.27644E-04 1.74679E-04
 -1        98 0.00000E+00 0.00000E+00 0.00000E+00
 -1        99 0.00000E+00 0.00000E+00 0.00000E+00
 -1       100 0.00000E+00 0.00000E+00 0.00000E+00
 -1       101 0.00000E+00 0.00000E+00 0.00000E+00
 -1       102 0.00000E+00 0.00000E+00 0.00000E+00
 -1       124 1.20505E-06 9.08656E-04-1.35573E-04
 -1       125-7.60158E-08 1.08854E-03-1.42249E-04
 -1       126-1.30634E-06 9.08641E-04-1.35600E-04
 -1       127 1.04521E-08 8.00197E-04-2.56173E-04
 -1       128-1.65970E-06 5.89952E-04-2.84974E-04
 -1       129-8.55474E-09 5.46767E-04-2.90276E-04
 -1       130 1.66578E-06 5.89951E-04-2.84976E-04
 -1       131 9.09755E-09 2.30935E-04-1.69744E-04
 -1       153 7.62993E-05 1.18045E-03-6.39329E-05
 -1       154 7.59824E-07 1.04283E-03 5.58666E-08
 -1       155-7.78843E-05 1.17643E-03 6.38635E-05
 -1       156 3.28499E-09 8.65205E-04-2.74471E-07
 -1       157-1.52923E-05 4.87117E-04-1.14364E-04
 -1       158-1.85207E-07 4.97780E-04-8.57507E-08
 -1       159 1.56126E-05 4.88004E-04 1.14408E-04
 -1       160 1.92294E-08 1.89389E-04 1.16055E-08
 -1       182 5.24424E-06 9.10032E-04 1.35537E-04
 -1       183-1.00429E-07 1.08718E-03 1.42218E-04
 -1       184-5.33212E-06 9.10052E-04 1.35604E-04
 -1       185 2.86914E-08 8.00382E-04 2.56703E-04
 -1       186-2.55800E-06 5.89656E-04 2.84942E-04
 -1       187-1.91214E-08 5.47051E-04 2.90465E-04
 -1       188 2.56493E-06 5.89652E-04 2.84935E-04
 -1       189 1.16944E-08 2.30867E-04 1.69744E-04
 -1       211 7.78588E-05 1.17632E-03 6.39312E-05
 -1       212-8.70631E-07 1.04287E-03-5.09675E-08
 -1       213-7.63624E-05 1.18062E-03-6.38423E-05
 -1       214 8.80233E-08 8.65209E-04-2.67336E-07
 -1       215-1.56088E-05 4.88030E-04 1.14390E-04
 -1       216 1.41070E-07 4.97784E-04-8.12082E-08
 -1       217 1.52843E-05 4.87095E-04-1.14385E-04
 -1       218-6.49362E-09 1.89390E-04-9.03690E-09
 -1       250 2.70845E-08 1.17357E-03-6.35239E-05
 -1       251 1.38395E-06 7.43281E-04-5.20315E-08
 -1       252 1.51112E-07 9.49042E-04-8.65477E-08
 -1       253-1.30261E-06 7.43261E-04 1.37789E-07
 -1       254 1.03766E-08 1.17629E-03 6.33508E-05
 -1       255-1.61485E-08 8.45704E-04 3.61581E-09
 -1       256 1.97198E-08 4.81865E-04-1.27449E-04
 -1       257-2.89556E-07 5.62173E-04 2.05313E-08
 -1       258 4.36008E-08 4.99342E-04 1.17589E-08
 -1       259 3.17752E-07 5.62171E-04-1.40726E-08
 -1       260 1.53071E-08 4.81262E-04 1.27449E-04
 -1       261-7.26175E-09 2.14233E-04-1.82321E-10
 -3
    1PSTEP                         5           5           1          
  100CL  105 2.50000E-02          81                     1    5           1
 -4  DISP        4    1
 -5  D1          1    2    1    0
 -5  D2          1    2    2    0
 -5  D3          1    2    3    0
 -5  ALL         1    2    0    0    1ALL
 -1         5 0.00000E+00 0.00000E+00 0.00000E+00
 -1         6 0.00000E+00 0.00000E+00 0.00000E+00
 -1         7 0.00000E+00 0.00000E+00 0.00000E+00
 -1         8 0.00000E+00 0.00000E+00 0.00000E+00
 -1        21 0.00000E+00 0.00000E+00 0.00000E+00
 -1        22 0.00000E+00 0.00000E+00 0.00000E+00
 -1        23 0.00000E+00 0.00000E+00 0.00000E+00
 -1        24 0.00000E+00 0.00000E+00 0.00000E+00
 -1        25 0.00000E+00 0.00000E+00 0.00000E+00
 -1        26 0.00000E+00 0.00000E+00 0.00000E+00
 -1        27 0.00000E+00 0.00000E+00 0.00000E+00
 -1        28 0.00000E+00 0.00000E+00 0.00000E+00
 -1        29 0.00000E+00 0.00000E+00 0.00000E+00
 -1        30 0.00000E+00 0.00000E+00 0.00000E+00
 -1        31 0.00000E+00 0.00000E+00 0.00000E+00
 -1        32 0.00000E+00 0.00000E+00 0.00000E+00
 -1        44 6.84457E-05-7.49242E-04 1.08598E-04
 -1        45 1.50968E-05-5.81520E-04 1.74994E-04
 -1        46-1.86727E-05-4.23233E-04 2.00508E-04
 -1        47 2.54274E-05-1.71251E-04 1.31827E-04
 -1        48-2.54288E-05-1.71253E-04 1.31838E-04
 -1        49 1.86735E-05-4.23237E-04 2.00526E-04
 -1        50-1.51279E-05-5.81518E-04 1.74991E-04
 -1        51-6.84540E-05-7.49239E-04 1.08593E-04
 -1        74-7.11557E-05-7.46785E-04-1.08595E-04
 -1        75-1.66125E-05-5.80082E-04-1.74999E-04
 -1        76 1.92543E-05-4.23786E-04-2.00510E-04
 -1        77-2.50129E-05-1.71647E-04-1.31833E-04
 -1        89 7.11251E-05-7.46821E-04-1.08599E-04
 -1        90 1.65853E-05-5.80087E-04-1.74996E-04
 -1        91-1.92568E-05-4.23787E-04-2.00508E-04
 -1        92 2.50086E-05-1.71645E-04-1.31828E-04
 -1        98 0.00000E+00 0.00000E+00 0.00000E+00
 -1        99 0.00000E+00 0.00000E+00 0.00000E+00
 -1       100 0.00000E+00 0.00000E+00 0.00000E+00
 -1       101 0.00000E+00 0.00000E+00 0.00000E+00
 -1       102 0.00000E+00 0.00000E+00 0.00000E+00
 -1       124-1.37032E-06-6.85810E-04 1.02331E-04
 -1       125-2.15987E-08-8.21896E-04 1.07322E-04
 -1       126 1.34748E-06-6.85800E-04 1.02291E-04
 -1       127-3.74954E-10-6.03983E-04 1.93421E-04
 -1       128 1.31189E-06-4.45373E-04 2.15136E-04
 -1       129-9.05744E-09-4.12866E-04 2.19151E-04
 -1       130-1.32146E-06-4.45373E-04 2.15136E-04
 -1       131 3.87585E-11-1.74328E-04 1.28146E-04
 -1       153-5.76327E-05-8.90623E-04 4.82176E-05
 -1       154-5.56138E-07-7.87355E-04-4.45897E-09
 -1       155 5.85780E-05-8.88055E-04-4.82182E-05
 -1       156-6.36533E-09-6.53362E-04 1.46366E-07
 -1       157 1.15728E-05-3.67665E-04 8.63558E-05
 -1       158 1.19502E-07-3.75573E-04 5.06796E-08
 -1       159-1.17844E-05-3.68235E-04-8.63828E-05
 -1       160-5.11991E-09-1.42902E-04 1.82850E-09
 -1       182-4.06516E-06-6.86650E-04-1.02310E-04
 -1       183-2.88908E-08-8.21125E-04-1.07339E-04
 -1       184 4.02458E-06-6.86659E-04-1.02325E-04
 -1       185-9.51706E-09-6.04128E-04-1.93737E-04
 -1       186 1.89688E-06-4.45200E-04-2.15118E-04
 -1       187-8.09575E-09-4.13015E-04-2.19262E-04
 -1       188-1.90714E-06-4.45202E-04-2.15115E-04
 -1       189-5.45661E-10-1.74281E-04-1.28147E-04
 -1       211-5.85945E-05-8.88078E-04-4.82237E-05
 -1       212 5.44311E-07-7.87356E-04-2.05713E-08
 -1       213 5.76302E-05-8.90616E-04 4.82341E-05
 -1       214-1.05781E-08-6.53363E-04 1.52412E-07
 -1       215 1.17774E-05-3.68234E-04-8.63787E-05
 -1       216-1.29022E-07-3.75572E-04 5.97895E-08
 -1       217-1.15787E-05-3.67667E-04 8.63637E-05
 -1       218 1.49267E-09-1.42903E-04 6.28265E-09
 -1       250-1.53319E-08-8.86999E-04 4.78796E-05
 -1       251-8.29148E-07-5.60966E-04-3.37441E-08
 -1       252-4.93648E-09-7.16843E-04-2.16955E-08
 -1       253 8.15516E-07-5.60966E-04-2.83253E-08
 -1       254-1.83444E-08-8.88798E-04-4.78487E-05
 -1       255-7.47954E-09-6.38404E-04-1.55222E-09
 -1       256-6.22072E-09-3.63652E-04 9.61949E-05
 -1       257 1.75011E-07-4.24406E-04-1.55896E-09
 -1       258-4.34854E-09-3.77002E-04 3.23809E-09
 -1       259-1.83231E-07-4.24407E-04-5.55945E-09
 -1       260-6.16198E-09-3.63247E-04-9.61857E-05
 -1       261-1.96322E-09-1.61716E-04-1.15586E-09
 -3
    1PSTEP                         6           6           1          
  100CL  106 3.00000E-02          81                     1    6           1
 -4  DISP        4    1
 -5  D1          1    2    1    0
 -5  D2          1    2    2    0
 -5  D3          1    2    3    0
 -5  ALL         1    2    0    0    1ALL
 -1         5 0.00000E+00 0.00000E+00 0.00000E+00
 -1         6 0.00000E+00 0.00000E+00 0.00000E+00
 -1         7 0.00000E+00 0.00000E+00 0.00000E+00
 -1         8 0.00000E+00 0.00000E+00 0.00000E+00
 -1        21 0.00000E+00 0.00000E+00 0.00000E+00
 -1        22 0.00000E+00 0.00000E+00 0.00000E+00
 -1        23 0.00000E+00 0.00000E+00 0.00000E+00
 -1        24 0.00000E+00 0.00000E+00 0.00000E+00
 -1        25 0.00000E+00 0.00000E+00 0.00000E+00
 -1        26 0.00000E+00 0.00000E+00 0.00000E+00
 -1        27 0.00000E+00 0.00000E+00 0.00000E+00
 -1        28 0.00000E+00 0.00000E+00 0.00000E+00
 -1        29 0.00000E+00 0.00000E+00 0.00000E+00
 -1        30 0.00000E+00 0.00000E+00 0.00000E+00
 -1        31 0.00000E+00 0.00000E+00 0.00000E+00
 -1        32 0.00000E+00 0.00000E+00 0.00000E+00
 -1        44-4.96273E-05 5.43095E-04-7.87212E-05
 -1        45-1.10223E-05 4.21511E-04-1.26880E-04
 -1        46 1.35776E-05 3.07034E-04-1.45446E-04
 -1        47-1.84345E-05 1.24208E-04-9.56150E-05