
 displacements (vx,vy,vz) for set NALL and time  0.5000000E-02

         5  0.000000E+00  0.000000E+00  0.000000E+00
         6  0.000000E+00  0.000000E+00  0.000000E+00
         7  0.000000E+00  0.000000E+00  0.000000E+00
         8  0.000000E+00  0.000000E+00  0.000000E+00
        21  0.000000E+00  0.000000E+00  0.000000E+00
        22  0.000000E+00  0.000000E+00  0.000000E+00
        23  0.000000E+00  0.000000E+00  0.000000E+00
        24  0.000000E+00  0.000000E+00  0.000000E+00
        25  0.000000E+00  0.000000E+00  0.000000E+00
        26  0.000000E+00  0.000000E+00  0.000000E+00
        27  0.000000E+00  0.000000E+00  0.000000E+00
        28  0.000000E+00  0.000000E+00  0.000000E+00
        29  0.000000E+00  0.000000E+00  0.000000E+00
        30  0.000000E+00  0.000000E+00  0.000000E+00
        31  0.000000E+00  0.000000E+00  0.000000E+00
        32  0.000000E+00  0.000000E+00  0.000000E+00
        44 -6.958906E-05 -3.468276E-03  4.479629E-04
        45  5.477315E-05 -2.559288E-03  7.860078E-04
        46 -4.513689E-05 -1.795112E-03  9.495768E-04
        47  1.312751E-04 -6.744159E-04  5.422916E-04
        48 -1.313316E-04 -6.744455E-04  5.423790E-04
        49  4.494584E-05 -1.795127E-03  9.497455E-04
        50 -5.518273E-05 -2.559320E-03  7.862691E-04
        51  6.888548E-05 -3.468285E-03  4.482886E-04
        74  3.485228E-04 -4.416682E-03 -4.943415E-04
        75  2.013610E-04 -2.973286E-03 -7.864348E-04
        76 -1.155442E-04 -1.597619E-03 -9.511994E-04
        77 -2.108022E-04 -5.254733E-04 -5.572852E-04
        89 -3.491985E-04 -4.416703E-03 -4.940836E-04
        90 -2.017684E-04 -2.973256E-03 -7.862045E-04
        91  1.153501E-04 -1.597603E-03 -9.510205E-04
        92  2.107474E-04 -5.254457E-04 -5.571973E-04
        98  0.000000E+00  0.000000E+00  0.000000E+00
        99  0.000000E+00  0.000000E+00  0.000000E+00
       100  0.000000E+00  0.000000E+00  0.000000E+00
       101  0.000000E+00  0.000000E+00  0.000000E+00
       102  0.000000E+00  0.000000E+00  0.000000E+00
       124  1.391650E-04 -2.964350E-03  4.288061E-04
       125 -3.490539E-07 -3.579833E-03  4.480362E-04
       126 -1.398569E-04 -2.964340E-03  4.286567E-04
       127 -1.979494E-07 -2.558918E-03  9.015166E-04
       128 -7.137372E-06 -1.952650E-03  9.475525E-04
       129 -9.304098E-08 -1.815389E-03  9.402441E-04
       130  6.951442E-06 -1.952644E-03  9.474656E-04
       131 -1.974003E-08 -7.366878E-04  5.563503E-04
       153  7.736560E-05 -3.622114E-03  1.905811E-04
       154 -1.114562E-04 -2.488687E-03 -2.065188E-05
       155 -8.304156E-05 -3.893698E-03 -2.376276E-04
       156 -1.172120E-04 -2.786539E-03 -6.520027E-05
       157 -2.273454E-05 -1.509749E-03  3.924898E-04
       158  8.515746E-05 -1.565489E-03 -2.950879E-05
       159  5.096141E-05 -1.472513E-03 -4.111672E-04
       160  3.889343E-05 -6.573461E-04  4.805161E-06
       182  1.310529E-04 -2.563262E-03 -4.703792E-04
       183 -3.207793E-07 -4.335591E-03 -4.760449E-04
       184 -1.317073E-04 -2.563275E-03 -4.702468E-04
       185 -2.025100E-07 -2.822559E-03 -8.705498E-04
       186 -4.697254E-05 -2.161437E-03 -9.819778E-04
       187 -8.802887E-08 -1.835291E-03 -9.612776E-04
       188  4.679044E-05 -2.161428E-03 -9.818907E-04
       189 -2.035839E-08 -7.224305E-04 -5.645797E-04
       211  8.239312E-05 -3.893714E-03 -2.373447E-04
       212  1.108423E-04 -2.488716E-03 -2.038992E-05
       213 -7.803523E-05 -3.622137E-03  1.908794E-04
       214  1.167598E-04 -2.786535E-03 -6.496746E-05
       215 -5.115109E-05 -1.472508E-03 -4.109940E-04
       216 -8.533499E-05 -1.565494E-03 -2.932896E-05
       217  2.254809E-05 -1.509758E-03  3.926632E-04
       218 -3.896506E-05 -6.573455E-04  4.901793E-06
       250 -3.707782E-07 -4.087426E-03  1.744713E-04
       251  3.656840E-05 -2.569574E-03 -1.040313E-05
       252 -3.818824E-07 -3.126050E-03 -1.678966E-05
       253 -3.725446E-05 -2.569555E-03 -1.059654E-05
       254 -3.523511E-07 -4.394875E-03 -2.540466E-04
       255 -1.918553E-07 -2.598575E-03 -3.187379E-05
       256 -1.036826E-07 -1.605350E-03  3.947221E-04
       257 -4.212217E-05 -1.747407E-03 -1.192827E-05
       258 -1.122068E-07 -1.789234E-03 -1.444937E-05
       259  4.192398E-05 -1.747405E-03 -1.200242E-05
       260 -1.020827E-07 -1.625912E-03 -4.174768E-04
       261 -2.293579E-08 -7.160613E-04 -1.773573E-06

 forces (fx,fy,fz) for set NALL and time  0.5000000E-02

         5  2.223185E+00 -4.186188E+00 -1.093519E+00
         6 -2.222716E+00 -4.186412E+00 -1.093540E+00
         7  3.332586E+00  9.612867E-01  1.254207E+00
         8 -3.332016E+00  9.609613E-01  1.254330E+00
        21 -2.686302E+00  5.623704E+00 -1.790367E+01
        22  3.014216E-04 -9.995428E+00 -6.439271E-01
        23  2.685298E+00  5.623521E+00 -1.790206E+01
        24 -4.687390E+00  1.711568E+01 -1.022045E+01
        25  7.218010E-01 -1.161187E+01 -4.647281E-01
        26  2.347393E+00  1.354088E+01  1.051708E+01
        27 -1.761358E+00 -2.941662E-01  1.759932E+01
        28  2.940266E-04 -1.712486E+00  1.779209E+00
        29  1.760364E+00 -2.943259E-01  1.759759E+01
        30 -2.347216E+00  1.354096E+01  1.051485E+01
        31 -7.211507E-01 -1.161187E+01 -4.640904E-01
        32  4.687584E+00  1.711559E+01 -1.022254E+01
        44  1.323672E+00  5.200485E+01  1.438213E+00
        45 -7.131427E-06 -6.080380E-01  1.525634E-01
        46  5.450925E-06  1.541473E+00 -4.634098E-01
        47 -1.911801E-06 -1.167011E+00  5.403038E-01
        48  2.089422E-06 -1.167010E+00  5.403044E-01
        49 -4.880397E-06  1.541474E+00 -4.634100E-01
        50  5.313812E-06 -6.080403E-01  1.525630E-01
        51 -1.323909E+00  5.200505E+01  1.438060E+00
        74 -6.359139E+00  1.845023E+01 -1.003415E+00
        75  6.457001E-07 -6.081234E-01 -1.525356E-01
        76 -1.637914E-06  1.541534E+00  4.634018E-01
        77  4.014499E-06 -1.167024E+00 -5.403001E-01
        89  6.358711E+00  1.845022E+01 -1.004541E+00
        90 -3.468028E-06 -6.081198E-01 -1.525355E-01
        91  2.119459E-06  1.541534E+00  4.634019E-01
        92 -3.430508E-06 -1.167026E+00 -5.403000E-01
        98  3.842198E-04  3.810448E+01 -1.718446E+01
        99 -3.614956E-01 -7.599445E+00  6.522221E-01
       100  1.232155E-03 -2.295328E+01 -3.586454E-01
       101  3.595806E-01 -7.599595E+00  6.554165E-01
       102  2.312105E-04  3.520760E+01  1.647099E+01
       124  1.632337E+01  1.935690E+01 -6.213489E-01
       125 -3.387932E-04  1.124340E+02  2.960016E+00
       126 -1.632252E+01  1.935664E+01 -6.222984E-01
       127  4.398617E-07 -1.216077E+00  3.051177E-01
       128  4.557363E-06 -2.615777E+00  9.358650E-01
       129 -1.978155E-07  3.082946E+00 -9.268166E-01
       130 -5.016808E-06 -2.615776E+00  9.358641E-01
       131  5.295635E-07 -2.334021E+00  1.080606E+00
       153  1.201632E+01 -1.326338E+02 -2.307015E+00
       154 -1.727288E+00  9.917803E+01  4.215957E-01
       155  2.457645E+00 -1.090433E+02  1.429353E+00
       156 -1.171603E-05 -1.216153E+00 -2.478953E-05
       157 -7.607179E-06 -2.615785E+00  7.018891E-01
       158  5.803628E-06  3.083006E+00  1.159795E-05
       159 -1.389385E-07 -2.615848E+00 -7.018921E-01
       160 -1.208089E-06 -2.334038E+00 -3.363793E-06
       182  7.629756E+00  6.433203E+01  4.441181E-01
       183 -2.615588E-05  5.221928E+01 -1.420728E+00
       184 -7.628771E+00  6.433154E+01  4.460183E-01
       185  1.291370E-06 -6.742573E+00 -3.050653E-01
       186  2.521127E-06 -8.142179E+00 -9.358385E-01
       187 -4.799536E-07 -2.443243E+00  9.268048E-01
       188 -2.878664E-06 -8.142177E+00 -9.358381E-01
       189  4.008605E-07 -7.860373E+00 -1.080595E+00
       211 -2.457473E+00 -1.090431E+02  1.431656E+00
       212  1.727416E+00  9.917772E+01  4.193766E-01
       213 -1.201636E+01 -1.326341E+02 -2.305707E+00
       214  9.290853E-06 -1.216154E+00 -2.298063E-05
       215 -1.520318E-06 -2.615846E+00 -7.018923E-01
       216 -4.644082E-06  3.083005E+00  1.076123E-05
       217  6.236509E-06 -2.615787E+00  7.018893E-01
       218  5.972747E-07 -2.334038E+00 -4.638792E-06
       250 -1.403620E-03 -2.950349E+02 -5.829130E+00
       251  6.437770E+00  8.806936E+01  5.664936E-01
       252 -1.306024E-03  2.061656E+02  1.233647E+00
       253 -6.436218E+00  8.807025E+01  5.606759E-01
       254 -4.949928E-04 -2.677399E+02  1.581385E+00
       255  3.291489E-06 -2.432314E+00 -6.072735E-05
       256  8.448652E-07 -5.231571E+00  1.403768E+00
       257  7.240947E-06 -5.231633E+00 -2.667988E-05
       258 -6.528633E-07  6.166016E+00  2.392871E-05
       259 -6.920817E-06 -5.231632E+00 -2.695524E-05
       260  1.693393E-06 -5.231707E+00 -1.403780E+00
       261 -4.981984E-07 -4.668080E+00 -9.360841E-06

 displacements (vx,vy,vz) for set NALL and time  0.1000000E-01

         5  0.000000E+00  0.000000E+00  0.000000E+00
         6  0.000000E+00  0.000000E+00  0.000000E+00
         7  0.000000E+00  0.000000E+00  0.000000E+00
         8  0.000000E+00  0.000000E+00  0.000000E+00
        21  0.000000E+00  0.000000E+00  0.000000E+00
        22  0.000000E+00  0.000000E+00  0.000000E+00
        23  0.000000E+00  0.000000E+00  0.000000E+00
        24  0.000000E+00  0.000000E+00  0.000000E+00
        25  0.000000E+00  0.000000E+00  0.000000E+00
        26  0.000000E+00  0.000000E+00  0.000000E+00
        27  0.000000E+00  0.000000E+00  0.000000E+00
        28  0.000000E+00  0.000000E+00  0.000000E+00
        29  0.000000E+00  0.000000E+00  0.000000E+00
        30  0.000000E+00  0.000000E+00  0.000000E+00
        31  0.000000E+00  0.000000E+00  0.000000E+00
        32  0.000000E+00  0.000000E+00  0.000000E+00
        44 -1.609200E-04  1.600243E-03 -2.339171E-04
        45 -4.026715E-05  1.244769E-03 -3.776079E-04
        46  4.339983E-05  9.151846E-04 -4.319906E-04
        47 -5.249854E-05  3.712071E-04 -2.839703E-04
        48  5.248934E-05  3.712159E-04 -2.840153E-04
        49 -4.349282E-05  9.152242E-04 -4.320288E-04
        50  4.038844E-05  1.244695E-03 -3.775151E-04
        51  1.609862E-04  1.600046E-03 -2.338906E-04
        74  1.453868E-04  1.620341E-03  2.340540E-04
        75  3.081879E-05  1.255396E-03  3.773702E-04
        76 -3.988178E-05  9.112229E-04  4.320455E-04
        77  5.515199E-05  3.680561E-04  2.841148E-04
        89 -1.452803E-04  1.620535E-03  2.340707E-04
        90 -3.071526E-05  1.255485E-03  3.774758E-04
        91  3.980684E-05  9.111721E-04  4.320072E-04
        92 -5.516360E-05  3.680510E-04  2.840776E-04
        98  0.000000E+00  0.000000E+00  0.000000E+00
        99  0.000000E+00  0.000000E+00  0.000000E+00
       100  0.000000E+00  0.000000E+00  0.000000E+00
       101  0.000000E+00  0.000000E+00  0.000000E+00
       102  0.000000E+00  0.000000E+00  0.000000E+00
       124  1.535119E-05  1.482526E-03 -2.204589E-04
       125  1.603066E-07  1.764773E-03 -2.313309E-04
       126 -1.521372E-05  1.482488E-03 -2.203400E-04
       127 -3.874719E-08  1.301359E-03 -4.179931E-04
       128 -5.694158E-06  9.583255E-04 -4.633702E-04
       129  4.255756E-08  8.903790E-04 -4.726985E-04
       130  5.705905E-06  9.583325E-04 -4.633832E-04
       131 -1.376577E-08  3.753017E-04 -2.759800E-04
       153  1.284930E-04  1.907433E-03 -1.038339E-04
       154 -1.600983E-06  1.695783E-03 -1.243430E-07
       155 -1.236726E-04  1.926664E-03  1.041701E-04
       156  9.603600E-07  1.405715E-03  1.264463E-06
       157 -2.582949E-05  7.953433E-04 -1.860717E-04
       158  1.337796E-07  8.105949E-04  4.686543E-07
       159  2.469373E-05  7.913917E-04  1.860039E-04
       160 -3.584880E-07  3.081738E-04 -5.042334E-08
       182 -2.136094E-06  1.474848E-03  2.207121E-04
       183  1.258301E-07  1.774920E-03  2.314717E-04
       184  2.260004E-06  1.474819E-03  2.206192E-04
       185 -2.621893E-08  1.302740E-03  4.159863E-04
       186 -1.768821E-06  9.605764E-04  4.636784E-04
       187  3.257418E-08  8.887907E-04  4.722269E-04
       188  1.779469E-06  9.605761E-04  4.636858E-04
       189 -1.205434E-08  3.752769E-04  2.760387E-04
       211  1.236526E-04  1.926865E-03  1.041189E-04
       212  1.633145E-06  1.695820E-03  1.372121E-07
       213 -1.285275E-04  1.907266E-03 -1.038917E-04
       214 -1.048473E-06  1.405710E-03  1.273680E-06
       215 -2.468920E-05  7.913544E-04  1.860225E-04
       216 -8.358346E-08  8.106025E-04  4.527527E-07
       217  2.582397E-05  7.953830E-04 -1.860513E-04
       218  3.509060E-07  3.081730E-04 -3.127669E-08
       250  6.865644E-09  1.914779E-03 -1.027991E-04
       251 -6.802203E-06  1.209839E-03 -1.156352E-07
       252 -1.932257E-07  1.538839E-03  1.476169E-07
       253  6.655342E-06  1.209818E-03 -3.774730E-07
       254 -1.391187E-08  1.904059E-03  1.036555E-04
       255  1.684433E-08  1.375097E-03  1.872706E-07
       256 -5.468220E-09  7.817082E-04 -2.072535E-04
       257  1.610378E-06  9.139374E-04  3.875055E-08
       258 -4.367130E-08  8.120792E-04  5.976534E-08
       259 -1.639668E-06  9.139339E-04  7.807763E-08
       260 -9.811110E-09  7.843758E-04  2.073869E-04
       261  1.239542E-08  3.486469E-04  1.091229E-08

 forces (fx,fy,fz) for set NALL and time  0.1000000E-01

         5 -1.663759E+00  3.864636E-01  9.241568E-01
         6  1.663877E+00  3.864411E-01  9.251746E-01
         7 -1.672834E+00  3.522357E-01 -9.248300E-01
         8  1.672758E+00  3.523967E-01 -9.256893E-01
        21  1.007005E+00 -1.670004E+00  8.962177E+00
        22 -1.175891E-03  8.103352E-01  1.402599E+00
        23 -1.006098E+00 -1.669091E+00  8.961866E+00
        24  1.145180E+00 -5.873557E+00  4.704979E+00
        25  6.131057E-02  2.428433E+00  1.164347E-02
        26 -1.160664E+00 -5.878558E+00 -4.718675E+00
        27  1.031060E+00 -1.595728E+00 -8.950212E+00
        28 -1.066704E-03  6.206672E-01 -1.425800E+00
        29 -1.030206E+00 -1.594662E+00 -8.949999E+00
        30  1.160522E+00 -5.879528E+00 -4.717558E+00
        31 -6.185597E-02  2.428373E+00  1.135137E-02
        32 -1.145093E+00 -5.872581E+00  4.706058E+00
        44 -6.163785E+00 -1.512839E+01 -7.546521E-01
        45  6.108158E-06  5.208353E-01 -1.306833E-01
        46 -4.673633E-06 -1.320401E+00  3.969495E-01
        47  1.646696E-06  9.996432E-01 -4.628157E-01
        48 -1.798852E-06  9.996421E-01 -4.628162E-01
        49  4.184979E-06 -1.320402E+00  3.969497E-01
        50 -4.551281E-06  5.208373E-01 -1.306830E-01
        51  6.164740E+00 -1.512689E+01 -7.507089E-01
        74  6.173810E+00 -1.486263E+01  7.459950E-01
        75 -5.478578E-07  5.209086E-01  1.306595E-01
        76  1.404719E-06 -1.320454E+00 -3.969427E-01
        77 -3.448417E-06  9.996540E-01  4.628125E-01
        89 -6.172370E+00 -1.486458E+01  7.496716E-01
        90  2.965358E-06  5.209054E-01  1.306595E-01
        91 -1.817151E-06 -1.320453E+00 -3.969428E-01
        92  2.948170E-06  9.996559E-01  4.628125E-01
        98 -1.166612E-05 -1.299987E+01  8.239655E+00
        99  1.004396E-01  3.905720E+00 -1.011630E-02
       100  1.914567E-03  5.347110E+00  2.417771E-03
       101 -1.016379E-01  3.906046E+00 -9.388315E-03
       102  3.379238E-04 -1.278455E+01 -8.223585E+00
       124 -6.242443E+00 -1.674948E+01  4.618751E-01
       125  3.474919E-03 -3.181098E+01 -1.401987E+00
       126  6.239513E+00 -1.675321E+01  4.669918E-01
       127 -3.768401E-07  1.041671E+00 -2.613589E-01
       128 -3.909540E-06  2.240633E+00 -8.016472E-01
       129  1.694971E-07 -2.640803E+00  7.938964E-01
       130  4.303029E-06  2.240632E+00 -8.016464E-01
       131 -4.536242E-07  1.999285E+00 -9.256298E-01
       153  4.848094E+00  5.159333E+01  1.177930E+00
       154 -6.267426E-01 -3.294097E+01 -6.364217E-03
       155 -4.608655E+00  5.167456E+01 -1.155924E+00
       156  1.002908E-05  1.041737E+00  2.122522E-05
       157  6.521844E-06  2.240640E+00 -6.012271E-01
       158 -4.970662E-06 -2.640853E+00 -9.928971E-06
       159  1.166759E-07  2.240694E+00  6.012297E-01
       160  1.038892E-06  1.999300E+00  2.881457E-06
       182 -6.437961E+00 -1.741022E+01 -4.617947E-01
       183  3.194292E-03 -3.011277E+01  1.386205E+00
       184  6.434781E+00 -1.741383E+01 -4.663175E-01
       185 -1.106229E-06  1.069527E+00  2.613140E-01
       186 -2.162736E-06  2.268408E+00  8.016245E-01
       187  4.111720E-07 -2.613210E+00 -7.938863E-01
       188  2.468932E-06  2.268406E+00  8.016241E-01
       189 -3.433793E-07  2.027017E+00  9.256210E-01
       211  4.609048E+00  5.168391E+01 -1.163802E+00
       212  6.252764E-01 -3.294072E+01  1.298988E-03
       213 -4.847726E+00  5.158422E+01  1.169992E+00
       214 -7.951837E-06  1.041737E+00  1.967579E-05
       215  1.304552E-06  2.240692E+00  6.012298E-01
       216  3.977517E-06 -2.640853E+00 -9.212291E-06
       217 -5.347816E-06  2.240641E+00 -6.012273E-01
       218 -5.156972E-07  1.999300E+00  3.973619E-06
       250  5.038463E-04  1.058309E+02  2.342621E+00
       251 -9.548200E-01 -4.723154E+01 -2.402455E-02
       252 -6.040019E-03 -6.991109E+01 -4.578976E-03
       253  9.586575E-01 -4.723255E+01 -3.485802E-02
       254 -5.541776E-04  1.038262E+02 -2.273795E+00
       255 -2.819560E-06  2.083480E+00  5.200275E-05
       256 -7.237627E-07  4.481281E+00 -1.202446E+00
       257 -6.205318E-06  4.481333E+00  2.284551E-05
       258  5.593353E-07 -5.281711E+00 -2.048564E-05
       259  5.930970E-06  4.481333E+00  2.308132E-05
       260 -1.450598E-06  4.481397E+00  1.202456E+00
       261  4.267308E-07  3.998604E+00  8.017824E-06

 displacements (vx,vy,vz) for set NALL and time  0.1500000E-01

         5  0.000000E+00  0.000000E+00  0.000000E+00
         6  0.000000E+00  0.000000E+00  0.000000E+00
         7  0.000000E+00  0.000000E+00  0.000000E+00
         8  0.000000E+00  0.000000E+00  0.000000E+00
        21  0.000000E+00  0.000000E+00  0.000000E+00
        22  0.000000E+00  0.000000E+00  0.000000E+00
        23  0.000000E+00  0.000000E+00  0.000000E+00
        24  0.000000E+00  0.000000E+00  0.000000E+00
        25  0.000000E+00  0.000000E+00  0.000000E+00
        26  0.000000E+00  0.000000E+00  0.000000E+00
        27  0.000000E+00  0.000000E+00  0.000000E+00
        28  0.000000E+00  0.000000E+00  0.000000E+00
        29  0.000000E+00  0.000000E+00  0.000000E+00
        30  0.000000E+00  0.000000E+00  0.000000E+00
        31  0.000000E+00  0.000000E+00  0.000000E+00
        32  0.000000E+00  0.000000E+00  0.000000E+00
        44  1.271481E-04 -1.267999E-03  1.853280E-04
        45  3.133970E-05 -9.868427E-04  2.986706E-04
        46 -3.432585E-05 -7.249234E-04  3.421624E-04
        47  4.180778E-05 -2.940162E-04  2.251280E-04
        48 -4.179799E-05 -2.940060E-04  2.250905E-04
        49  3.429496E-05 -7.249520E-04  3.421265E-04
        50 -3.123180E-05 -9.868165E-04  2.986793E-04
        51 -1.271166E-04 -1.268193E-03  1.854374E-04
        74 -1.179452E-04 -1.278203E-03 -1.853685E-04
        75 -2.586547E-05 -9.923257E-04 -2.986076E-04
        76  3.239646E-05 -7.230034E-04 -3.421087E-04
        77 -4.326869E-05 -2.924644E-04 -2.251217E-04
        89  1.181141E-04 -1.278268E-03 -1.855083E-04
        90  2.590725E-05 -9.922740E-04 -2.986195E-04
        91 -3.237303E-05 -7.230515E-04 -3.421322E-04
        92  4.326567E-05 -2.924647E-04 -2.251246E-04
        98  0.000000E+00  0.000000E+00  0.000000E+00
        99  0.000000E+00  0.000000E+00  0.000000E+00
       100  0.000000E+00  0.000000E+00  0.000000E+00
       101  0.000000E+00  0.000000E+00  0.000000E+00
       102  0.000000E+00  0.000000E+00  0.000000E+00
       124 -1.017507E-05 -1.173991E-03  1.746952E-04
       125  1.257269E-07 -1.399368E-03  1.832253E-04
       126  1.030420E-05 -1.173929E-03  1.747107E-04
       127  6.425989E-09 -1.031267E-03  3.311825E-04
       128  4.066944E-06 -7.593770E-04  3.671068E-04
       129  3.035635E-08 -7.051822E-04  3.744618E-04
       130 -4.048296E-06 -7.593564E-04  3.671081E-04
       131 -3.149520E-09 -2.974393E-04  2.186784E-04
       153 -1.021283E-04 -1.512586E-03  8.242627E-05
       154  1.561726E-06 -1.345018E-03  1.020637E-07
       155  9.925080E-05 -1.524090E-03 -8.234451E-05
       156 -3.325614E-07 -1.114524E-03 -5.244460E-07
       157  2.051109E-05 -6.297292E-04  1.473813E-04
       158 -2.620916E-07 -6.417517E-04 -2.212720E-07
       159 -1.984899E-05 -6.273439E-04 -1.473152E-04
       160  1.153855E-07 -2.439839E-04 -6.006551E-11
       182  7.476571E-07 -1.170319E-03 -1.747725E-04
       183  2.600775E-08 -1.403584E-03 -1.832621E-04
       184 -6.537512E-07 -1.170378E-03 -1.748270E-04
       185  2.374708E-08 -1.031422E-03 -3.299642E-04
       186  1.681424E-06 -7.601707E-04 -3.671898E-04
       187  5.669574E-09 -7.040874E-04 -3.741111E-04
       188 -1.660591E-06 -7.601889E-04 -3.672039E-04
       189  1.339318E-10 -2.974580E-04 -2.186895E-04
       211 -9.914154E-05 -1.524049E-03 -8.239294E-05
       212 -1.444534E-06 -1.344924E-03  1.086457E-07
       213  1.021929E-04 -1.512653E-03  8.235586E-05
       214  3.517484E-07 -1.114563E-03 -5.545841E-07
       215  1.988662E-05 -6.273553E-04 -1.473411E-04
       216  3.016507E-07 -6.417178E-04 -2.443120E-07
       217 -2.050346E-05 -6.297226E-04  1.473806E-04
       218 -1.115180E-07 -2.439899E-04 -4.163565E-09
       250  6.186102E-08 -1.516775E-03  8.165514E-05
       251  3.930863E-06 -9.577885E-04  1.770845E-07
       252 -1.246144E-08 -1.221342E-03  1.371176E-07
       253 -3.880151E-06 -9.578400E-04  1.293768E-07
       254  1.224437E-08 -1.509056E-03 -8.181324E-05
       255  2.890558E-08 -1.089644E-03 -5.234844E-08
       256  1.353128E-08 -6.196275E-04  1.642549E-04
       257 -8.756605E-07 -7.243968E-04  1.660682E-09
       258 -2.573107E-09 -6.433102E-04 -1.771261E-08
       259  8.901286E-07 -7.244136E-04  2.365245E-08
       260  2.363174E-10 -6.212539E-04 -1.642908E-04
       261  5.743627E-09 -2.761209E-04 -1.059319E-08

 forces (fx,fy,fz) for set NALL and time  0.1500000E-01

         5  1.329609E+00 -2.913428E-01 -7.359672E-01
         6 -1.329304E+00 -2.916836E-01 -7.352930E-01
         7  1.331466E+00 -2.849878E-01  7.352231E-01
         8 -1.331836E+00 -2.846127E-01  7.354270E-01
        21 -8.156095E-01  1.308719E+00 -7.099476E+00
        22 -4.694148E-04 -6.080568E-01 -1.117183E+00
        23  8.159473E-01  1.308469E+00 -7.099749E+00
        24 -9.030889E-01  4.637191E+00 -3.729505E+00
        25 -3.938172E-02 -1.904491E+00 -6.479205E-03
        26  9.204373E-01  4.651621E+00  3.735751E+00
        27 -8.330825E-01  1.279003E+00  7.093807E+00
        28 -1.840480E-04 -5.101704E-01  1.128176E+00
        29  8.334324E-01  1.279840E+00  7.093944E+00
        30 -9.209510E-01  4.651447E+00  3.736024E+00
        31  3.904883E-02 -1.904946E+00 -6.520355E-03
        32  9.034043E-01  4.637494E+00 -3.728669E+00
        44  4.954691E+00  1.190141E+01  5.951380E-01
        45 -4.853781E-06 -4.142314E-01  1.039353E-01
        46  3.723363E-06  1.050144E+00 -3.157028E-01
        47 -1.326164E-06 -7.950387E-01  3.680877E-01
        48  1.447189E-06 -7.950378E-01  3.680881E-01
        49 -3.334796E-06  1.050145E+00 -3.157029E-01
        50  3.615647E-06 -4.142330E-01  1.039350E-01
        51 -4.955305E+00  1.190075E+01  5.973742E-01
        74 -4.942168E+00  1.183162E+01 -5.925155E-01
        75  4.247583E-07 -4.142896E-01 -1.039163E-01
        76 -1.119633E-06  1.050186E+00  3.156973E-01
        77  2.759975E-06 -7.950473E-01 -3.680852E-01
        89  4.943510E+00  1.183016E+01 -5.927524E-01
        90 -2.347365E-06 -4.142871E-01 -1.039163E-01
        91  1.447579E-06  1.050186E+00  3.156974E-01
        92 -2.362106E-06 -7.950488E-01 -3.680852E-01
        98 -4.991462E-04  1.025781E+01 -6.521889E+00
        99 -5.747039E-02 -3.105499E+00  5.984647E-03
       100  4.568896E-04 -4.186842E+00 -2.929376E-03
       101  5.732498E-02 -3.104233E+00  6.029150E-03
       102  6.808012E-04  1.012375E+01  6.513544E+00
       124  5.064560E+00  1.337658E+01 -3.690644E-01
       125  1.141333E-03  2.493645E+01  1.107263E+00
       126 -5.065077E+00  1.337603E+01 -3.674059E-01
       127  2.997923E-07 -8.284632E-01  2.078644E-01
       128  3.118457E-06 -1.782026E+00  6.375679E-01
       129 -1.348740E-07  2.100289E+00 -6.314035E-01
       130 -3.431321E-06 -1.782025E+00  6.375673E-01
       131  3.607886E-07 -1.590077E+00  7.361742E-01
       153 -3.856141E+00 -4.078703E+01 -9.278707E-01
       154  3.889820E-01  2.600210E+01  3.392998E-03
       155  3.659290E+00 -4.091358E+01  9.229808E-01
       156 -7.966678E-06 -8.285152E-01 -1.686808E-05
       157 -5.195755E-06 -1.782031E+00  4.781694E-01
       158  3.952294E-06  2.100329E+00  7.888808E-06
       159 -8.864863E-08 -1.782073E+00 -4.781714E-01
       160 -8.320343E-07 -1.590088E+00 -2.291817E-06
       182  5.207912E+00  1.366051E+01  3.636877E-01
       183  7.059716E-04  2.402568E+01 -1.096330E+00
       184 -5.209361E+00  1.365931E+01  3.630875E-01
       185  8.798919E-07 -8.300441E-01 -2.078286E-01
       186  1.725508E-06 -1.783542E+00 -6.375498E-01
       187 -3.270839E-07  2.098917E+00  6.313955E-01
       188 -1.968945E-06 -1.783541E+00 -6.375496E-01
       189  2.731086E-07 -1.591559E+00 -7.361671E-01
       211 -3.659027E+00 -4.091066E+01  9.220687E-01
       212 -3.889844E-01  2.600268E+01  5.058996E-03
       213  3.856299E+00 -4.078892E+01 -9.314270E-01
       214  6.314767E-06 -8.285157E-01 -1.563585E-05
       215 -1.041597E-06 -1.782072E+00 -4.781715E-01
       216 -3.162563E-06  2.100329E+00  7.318871E-06
       217  4.262112E-06 -1.782032E+00  4.781695E-01
       218  4.159526E-07 -1.590088E+00 -3.160459E-06
       250  1.449126E-03 -8.353060E+01 -1.844670E+00
       251  5.523069E-01  3.751193E+01  8.382005E-03
       252 -1.472897E-03  5.512030E+01  1.038942E-02
       253 -5.516790E-01  3.750874E+01  5.527892E-03
       254 -1.563049E-03 -8.230556E+01  1.817435E+00
       255  2.242624E-06 -1.657036E+00 -4.133743E-05
       256  5.757113E-07 -3.564062E+00  9.563318E-01
       257  4.939149E-06 -3.564104E+00 -1.815823E-05
       258 -4.449905E-07  4.200662E+00  1.627682E-05
       259 -4.720778E-06 -3.564104E+00 -1.834571E-05
       260  1.153781E-06 -3.564154E+00 -9.563400E-01
       261 -3.393639E-07 -3.180180E+00 -6.376019E-06

 displacements (vx,vy,vz) for set NALL and time  0.2000000E-01

         5  0.000000E+00  0.000000E+00  0.000000E+00
         6  0.000000E+00  0.000000E+00  0.000000E+00
         7  0.000000E+00  0.000000E+00  0.000000E+00
         8  0.000000E+00  0.000000E+00  0.000000E+00
        21  0.000000E+00  0.000000E+00  0.000000E+00
        22  0.000000E+00  0.000000E+00  0.000000E+00
        23  0.000000E+00  0.000000E+00  0.000000E+00
        24  0.000000E+00  0.000000E+00  0.000000E+00
        25  0.000000E+00  0.000000E+00  0.000000E+00
        26  0.000000E+00  0.000000E+00  0.000000E+00
        27  0.000000E+00  0.000000E+00  0.000000E+00
        28  0.000000E+00  0.000000E+00  0.000000E+00
        29  0.000000E+00  0.000000E+00  0.000000E+00
        30  0.000000E+00  0.000000E+00  0.000000E+00
        31  0.000000E+00  0.000000E+00  0.000000E+00
        32  0.000000E+00  0.000000E+00  0.000000E+00
        44 -1.008363E-04  9.822578E-04 -1.439869E-04
        45 -2.516435E-05  7.645811E-04 -2.320213E-04
        46  2.705361E-05  5.634410E-04 -2.654167E-04
        47 -3.209980E-05  2.286652E-04 -1.747670E-04
        48  3.210530E-05  2.286691E-04 -1.747720E-04
        49 -2.704235E-05  5.633815E-04 -2.654135E-04
        50  2.512189E-05  7.646758E-04 -2.320662E-04
        51  1.008114E-04  9.822019E-04 -1.439477E-04
        74  9.219031E-05  9.910085E-04  1.439734E-04
        75  2.024215E-05  7.695085E-04  2.320168E-04
        76 -2.547529E-05  5.618655E-04  2.654242E-04
        77  3.343569E-05  2.273170E-04  1.747616E-04
        89 -9.228726E-05  9.907666E-04  1.439158E-04
        90 -2.030977E-05  7.695517E-04  2.319988E-04
        91  2.552678E-05  5.618351E-04  2.654624E-04
        92 -3.343500E-05  2.273286E-04  1.748031E-04
        98  0.000000E+00  0.000000E+00  0.000000E+00
        99  0.000000E+00  0.000000E+00  0.000000E+00
       100  0.000000E+00  0.000000E+00  0.000000E+00
       101  0.000000E+00  0.000000E+00  0.000000E+00
       102  0.000000E+00  0.000000E+00  0.000000E+00
       124  9.621100E-06  9.118908E-04 -1.356240E-04
       125 -5.464113E-09  1.085025E-03 -1.423349E-04
       126 -9.623562E-06  9.119655E-04 -1.356468E-04
       127 -5.722182E-09  8.006777E-04 -2.569017E-04
       128 -3.518976E-06  5.891721E-04 -2.849079E-04
       129 -1.017362E-08  5.472502E-04 -2.907313E-04
       130  3.509428E-06  5.891924E-04 -2.849046E-04
       131  2.540103E-09  2.308101E-04 -1.696916E-04
       153  8.030253E-05  1.173926E-03 -6.393700E-05
       154 -1.591733E-06  1.045616E-03 -5.262883E-08
       155 -7.737920E-05  1.185276E-03  6.387685E-05
       156  1.392284E-07  8.644690E-04  5.231888E-07
       157 -1.612479E-05  4.894667E-04 -1.143347E-04
       158  4.161763E-07  4.987744E-04  1.757509E-07
       159  1.549560E-05  4.871102E-04  1.142673E-04
       160 -5.864288E-08  1.894339E-04 -2.397009E-09
       182 -1.707257E-06  9.089670E-04  1.356758E-04
       183 -1.298172E-07  1.088272E-03  1.423932E-04
       184  1.557230E-06  9.088962E-04  1.357258E-04
       185  1.620816E-08  8.004712E-04  2.558677E-04
       186 -1.173989E-06  5.898314E-04  2.849705E-04
       187 -1.884576E-08  5.463557E-04  2.903652E-04
       188  1.173876E-06  5.898067E-04  2.849734E-04
       189  7.728114E-09  2.309204E-04  1.697045E-04
       211  7.729251E-05  1.185206E-03  6.404303E-05
       212  1.507744E-06  1.045779E-03 -1.079373E-07
       213 -8.029329E-05  1.174017E-03 -6.400437E-05
       214 -1.055904E-07  8.643975E-04  5.351528E-07
       215 -1.548870E-05  4.871344E-04  1.142434E-04
       216 -4.499129E-07  4.988410E-04  1.857232E-07
       217  1.610223E-05  4.894634E-04 -1.143188E-04
       218  6.250585E-08  1.894284E-04 -9.817479E-09
       250  2.634040E-08  1.175799E-03 -6.339928E-05
       251 -4.124800E-06  7.436290E-04 -1.736190E-07