    1C
    1UUSER                                                              
    1UDATE              15.july.2018                                    
    1UTIME              20:15:37                                        
    1UHOST                                                              
    1UPGM               CalculiX                                        
    1UVERSION           Version 2.13                             
    1UCOMPILETIME       jue jun 14 00:40:39 CEST 2018                    
    1UDIR                                                               
    1UDBN                                                               
    1UMAT    1EL                                                        
    2C                            81                                     1
 -1         5 0.00000E+00 0.00000E+00 8.00000E+00
 -1         6 1.00000E+00 0.00000E+00 8.00000E+00
 -1         7 1.00000E+00 1.00000E+00 8.00000E+00
 -1         8 0.00000E+00 1.00000E+00 8.00000E+00
 -1        21 2.50000E-01 0.00000E+00 8.00000E+00
 -1        22 5.00000E-01 0.00000E+00 8.00000E+00
 -1        23 7.50000E-01 0.00000E+00 8.00000E+00
 -1        24 1.00000E+00 2.50000E-01 8.00000E+00
 -1        25 1.00000E+00 5.00000E-01 8.00000E+00
 -1        26 1.00000E+00 7.50000E-01 8.00000E+00
 -1        27 7.50000E-01 1.00000E+00 8.00000E+00
 -1        28 5.00000E-01 1.00000E+00 8.00000E+00
 -1        29 2.50000E-01 1.00000E+00 8.00000E+00
 -1        30 0.00000E+00 7.50000E-01 8.00000E+00
 -1        31 0.00000E+00 5.00000E-01 8.00000E+00
 -1        32 0.00000E+00 2.50000E-01 8.00000E+00
 -1        44 1.00000E+00 0.00000E+00 6.00000E+00
 -1        45 1.00000E+00 0.00000E+00 6.50000E+00
 -1        46 1.00000E+00 0.00000E+00 7.00000E+00
 -1        47 1.00000E+00 0.00000E+00 7.50000E+00
 -1        48 0.00000E+00 0.00000E+00 7.50000E+00
 -1        49 0.00000E+00 0.00000E+00 7.00000E+00
 -1        50 0.00000E+00 0.00000E+00 6.50000E+00
 -1        51 0.00000E+00 0.00000E+00 6.00000E+00
 -1        74 1.00000E+00 1.00000E+00 6.00000E+00
 -1        75 1.00000E+00 1.00000E+00 6.50000E+00
 -1        76 1.00000E+00 1.00000E+00 7.00000E+00
 -1        77 1.00000E+00 1.00000E+00 7.50000E+00
 -1        89 0.00000E+00 1.00000E+00 6.00000E+00
 -1        90 0.00000E+00 1.00000E+00 6.50000E+00
 -1        91 0.00000E+00 1.00000E+00 7.00000E+00
 -1        92 0.00000E+00 1.00000E+00 7.50000E+00
 -1        98 5.00000E-01 2.50000E-01 8.00000E+00
 -1        99 2.50000E-01 5.00000E-01 8.00000E+00
 -1       100 5.00000E-01 5.00000E-01 8.00000E+00
 -1       101 7.50000E-01 5.00000E-01 8.00000E+00
 -1       102 5.00000E-01 7.50000E-01 8.00000E+00
 -1       124 2.50000E-01 0.00000E+00 6.00000E+00
 -1       125 5.00000E-01 0.00000E+00 6.00000E+00
 -1       126 7.50000E-01 0.00000E+00 6.00000E+00
 -1       127 5.00000E-01 0.00000E+00 6.50000E+00
 -1       128 2.50000E-01 0.00000E+00 7.00000E+00
 -1       129 5.00000E-01 0.00000E+00 7.00000E+00
 -1       130 7.50000E-01 0.00000E+00 7.00000E+00
 -1       131 5.00000E-01 0.00000E+00 7.50000E+00
 -1       153 1.00000E+00 2.50000E-01 6.00000E+00
 -1       154 1.00000E+00 5.00000E-01 6.00000E+00
 -1       155 1.00000E+00 7.50000E-01 6.00000E+00
 -1       156 1.00000E+00 5.00000E-01 6.50000E+00
 -1       157 1.00000E+00 2.50000E-01 7.00000E+00
 -1       158 1.00000E+00 5.00000E-01 7.00000E+00
 -1       159 1.00000E+00 7.50000E-01 7.00000E+00
 -1       160 1.00000E+00 5.00000E-01 7.50000E+00
 -1       182 7.50000E-01 1.00000E+00 6.00000E+00
 -1       183 5.00000E-01 1.00000E+00 6.00000E+00
 -1       184 2.50000E-01 1.00000E+00 6.00000E+00
 -1       185 5.00000E-01 1.00000E+00 6.50000E+00
 -1       186 7.50000E-01 1.00000E+00 7.00000E+00
 -1       187 5.00000E-01 1.00000E+00 7.00000E+00
 -1       188 2.50000E-01 1.00000E+00 7.00000E+00
 -1       189 5.00000E-01 1.00000E+00 7.50000E+00
 -1       211 0.00000E+00 7.50000E-01 6.00000E+00
 -1       212 0.00000E+00 5.00000E-01 6.00000E+00
 -1       213 0.00000E+00 2.50000E-01 6.00000E+00
 -1       214 0.00000E+00 5.00000E-01 6.50000E+00
 -1       215 0.00000E+00 7.50000E-01 7.00000E+00
 -1       216 0.00000E+00 5.00000E-01 7.00000E+00
 -1       217 0.00000E+00 2.50000E-01 7.00000E+00
 -1       218 0.00000E+00 5.00000E-01 7.50000E+00
 -1       250 5.00000E-01 2.50000E-01 6.00000E+00
 -1       251 2.50000E-01 5.00000E-01 6.00000E+00
 -1       252 5.00000E-01 5.00000E-01 6.00000E+00
 -1       253 7.50000E-01 5.00000E-01 6.00000E+00
 -1       254 5.00000E-01 7.50000E-01 6.00000E+00
 -1       255 5.00000E-01 5.00000E-01 6.50000E+00
 -1       256 5.00000E-01 2.50000E-01 7.00000E+00
 -1       257 2.50000E-01 5.00000E-01 7.00000E+00
 -1       258 5.00000E-01 5.00000E-01 7.00000E+00
 -1       259 7.50000E-01 5.00000E-01 7.00000E+00
 -1       260 5.00000E-01 7.50000E-01 7.00000E+00
 -1       261 5.00000E-01 5.00000E-01 7.50000E+00
 -3
    3C                             8                                     1
 -1        25    4    0    1
 -2        51       125       252       212        49       129       258       216       124       250
 -2       251       213        50       127       255       214       128       256       257       217
 -1        26    4    0    1
 -2       125        44       154       252       129        46       158       258       126       153
 -2       253       250       127        45       156       255       130       157       259       256
 -1        27    4    0    1
 -2       212       252       183        89       216       258       187        91       251       254
 -2       184       211       214       255       185        90       257       260       188       215
 -1        28    4    0    1
 -2       252       154        74       183       258       158        76       187       253       155
 -2       182       254       255       156        75       185       259       159       186       260
 -1        29    4    0    1
 -2        49       129       258       216         5        22       100        31       128       256
 -2       257       217        48       131       261       218        21        98        99        32
 -1        30    4    0    1
 -2       129        46       158       258        22         6        25       100       130       157
 -2       259       256       131        47       160       261        23        24       101        98
 -1        31    4    0    1
 -2       216       258       187        91        31       100        28         8       257       260
 -2       188       215       218       261       189        92        99       102        29        30
 -1        32    4    0    1
 -2       258       158        76       187       100        25         7        28       259       159
 -2       186       260       261       160        77       189       101        26        27       102
 -3
    1PSTEP                         1           1           1          
  100CL  101 5.00000E-03          81                     1    1           1
 -4  DISP        4    1
 -5  D1          1    2    1    0
 -5  D2          1    2    2    0
 -5  D3          1    2    3    0
 -5  ALL         1    2    0    0    1ALL
 -1         5 0.00000E+00 0.00000E+00 0.00000E+00
 -1         6 0.00000E+00 0.00000E+00 0.00000E+00
 -1         7 0.00000E+00 0.00000E+00 0.00000E+00
 -1         8 0.00000E+00 0.00000E+00 0.00000E+00
 -1        21 0.00000E+00 0.00000E+00 0.00000E+00
 -1        22 0.00000E+00 0.00000E+00 0.00000E+00
 -1        23 0.00000E+00 0.00000E+00 0.00000E+00
 -1        24 0.00000E+00 0.00000E+00 0.00000E+00
 -1        25 0.00000E+00 0.00000E+00 0.00000E+00
 -1        26 0.00000E+00 0.00000E+00 0.00000E+00
 -1        27 0.00000E+00 0.00000E+00 0.00000E+00
 -1        28 0.00000E+00 0.00000E+00 0.00000E+00
 -1        29 0.00000E+00 0.00000E+00 0.00000E+00
 -1        30 0.00000E+00 0.00000E+00 0.00000E+00
 -1        31 0.00000E+00 0.00000E+00 0.00000E+00
 -1        32 0.00000E+00 0.00000E+00 0.00000E+00
 -1        44-5.72586E-05-3.46357E-03 4.48926E-04
 -1        45 5.74265E-05-2.56143E-03 7.85401E-04
 -1        46-4.82342E-05-1.79779E-03 9.49782E-04
 -1        47 1.30828E-04-6.75641E-04 5.43645E-04
 -1        48-1.30797E-04-6.75624E-04 5.43595E-04
 -1        49 4.83524E-05-1.79778E-03 9.49678E-04
 -1        50-5.71854E-05-2.56142E-03 7.85241E-04
 -1        51 5.77099E-05-3.46355E-03 4.48707E-04
 -1        74 3.13481E-04-4.40287E-03-4.94927E-04
 -1        75 1.88099E-04-2.96791E-03-7.84909E-04
 -1        76-1.08304E-04-1.60157E-03-9.50299E-04
 -1        77-2.07022E-04-5.28420E-04-5.58500E-04
 -1        89-3.13029E-04-4.40289E-03-4.95147E-04
 -1        90-1.87858E-04-2.96792E-03-7.85068E-04
 -1        91 1.08423E-04-1.60158E-03-9.50403E-04
 -1        92 2.07053E-04-5.28437E-04-5.58551E-04
 -1        98 0.00000E+00 0.00000E+00 0.00000E+00
 -1        99 0.00000E+00 0.00000E+00 0.00000E+00
 -1       100 0.00000E+00 0.00000E+00 0.00000E+00
 -1       101 0.00000E+00 0.00000E+00 0.00000E+00
 -1       102 0.00000E+00 0.00000E+00 0.00000E+00
 -1       124 1.51782E-04-2.96774E-03 4.30142E-04
 -1       125 2.03393E-07-3.59178E-03 4.48892E-04
 -1       126-1.51358E-04-2.96775E-03 4.30235E-04
 -1       127 1.24210E-07-2.56452E-03 9.04386E-04
 -1       128-9.59318E-06-1.95333E-03 9.48584E-04
 -1       129 5.03797E-08-1.81414E-03 9.41962E-04
 -1       130 9.70087E-06-1.95334E-03 9.48640E-04
 -1       131 1.10667E-08-7.36471E-04 5.56451E-04
 -1       153 6.88489E-05-3.64047E-03 1.91682E-04
 -1       154-1.19587E-04-2.50575E-03-2.10217E-05
 -1       155-6.29801E-05-3.89071E-03-2.38025E-04
 -1       156-1.19255E-04-2.79075E-03-6.41758E-05
 -1       157-2.03399E-05-1.50927E-03 3.92442E-04
 -1       158 8.80034E-05-1.56743E-03-2.91967E-05
 -1       159 4.65658E-05-1.47652E-03-4.11111E-04
 -1       160 3.96102E-05-6.56565E-04 4.92645E-06
 -1       182 1.16361E-04-2.56738E-03-4.71512E-04
 -1       183 2.03297E-07-4.35264E-03-4.76939E-04
 -1       184-1.15937E-04-2.56739E-03-4.71605E-04
 -1       185 1.24293E-07-2.83392E-03-8.75338E-04
 -1       186-4.40777E-05-2.16211E-03-9.83048E-04
 -1       187 5.03198E-08-1.83252E-03-9.64370E-04
 -1       188 4.41854E-05-2.16212E-03-9.83103E-04
 -1       189 1.10720E-08-7.20360E-04-5.64653E-04
 -1       211 6.34316E-05-3.89072E-03-2.38234E-04
 -1       212 1.20029E-04-2.50575E-03-2.12244E-05
 -1       213-6.83971E-05-3.64045E-03 1.91474E-04
 -1       214 1.19514E-04-2.79075E-03-6.43302E-05
 -1       215-4.64463E-05-1.47653E-03-4.11217E-04
 -1       216-8.78864E-05-1.56743E-03-2.93039E-05
 -1       217 2.04593E-05-1.50926E-03 3.92336E-04
 -1       218-3.95706E-05-6.56565E-04 4.87437E-06
 -1       250 2.15125E-07-4.08065E-03 1.74624E-04
 -1       251 3.00246E-05-2.57235E-03-1.06261E-05
 -1       252 2.23204E-07-3.12635E-03-1.54681E-05
 -1       253-2.95859E-05-2.57235E-03-1.05238E-05
 -1       254 2.14978E-07-4.41077E-03-2.54336E-04
 -1       255 1.24043E-07-2.60086E-03-3.18649E-05
 -1       256 5.54359E-08-1.60808E-03 3.96056E-04
 -1       257-4.07782E-05-1.75015E-03-1.20326E-05
 -1       258 5.86786E-08-1.79030E-03-1.46011E-05
 -1       259 4.08939E-05-1.75015E-03-1.19801E-05
 -1       260 5.54264E-08-1.62344E-03-4.18650E-04
 -1       261 1.39358E-08-7.16964E-04-1.97167E-06
 -3
    1PSTEP                         2           2           1          
  100CL  102 1.00000E-02          81                     1    2           1
 -4  DISP        4    1
 -5  D1          1    2    1    0
 -5  D2          1    2    2    0
 -5  D3          1    2    3    0
 -5  ALL         1    2    0    0    1ALL
 -1         5 0.00000E+00 0.00000E+00 0.00000E+00
 -1         6 0.00000E+00 0.00000E+00 0.00000E+00
 -1         7 0.00000E+00 0.00000E+00 0.00000E+00
 -1         8 0.00000E+00 0.00000E+00 0.00000E+00
 -1        21 0.00000E+00 0.00000E+00 0.00000E+00
 -1        22 0.00000E+00 0.00000E+00 0.00000E+00
 -1        23 0.00000E+00 0.00000E+00 0.00000E+00
 -1        24 0.00000E+00 0.00000E+00 0.00000E+00
 -1        25 0.00000E+00 0.00000E+00 0.00000E+00
 -1        26 0.00000E+00 0.00000E+00 0.00000E+00
 -1        27 0.00000E+00 0.00000E+00 0.00000E+00
 -1        28 0.00000E+00 0.00000E+00 0.00000E+00
 -1        29 0.00000E+00 0.00000E+00 0.00000E+00
 -1        30 0.00000E+00 0.00000E+00 0.00000E+00
 -1        31 0.00000E+00 0.00000E+00 0.00000E+00
 -1        32 0.00000E+00 0.00000E+00 0.00000E+00
 -1        44-1.51731E-04 1.60874E-03-2.33926E-04
 -1        45-3.54003E-05 1.24920E-03-3.77261E-04
 -1        46 4.16457E-05 9.13985E-04-4.32275E-04
 -1        47-5.39349E-05 3.69847E-04-2.84023E-04
 -1        48 5.39251E-05 3.69861E-04-2.84031E-04
 -1        49-4.16830E-05 9.14015E-04-4.32277E-04
 -1        50 3.54192E-05 1.24921E-03-3.77262E-04
 -1        51 1.51701E-04 1.60876E-03-2.33948E-04
 -1        74 1.50216E-04 1.61309E-03 2.34160E-04
 -1        75 3.41541E-05 1.25116E-03 3.77265E-04
 -1        76-4.08484E-05 9.13053E-04 4.32306E-04
 -1        77 5.43428E-05 3.69143E-04 2.84109E-04
 -1        89-1.50089E-04 1.61325E-03 2.34167E-04
 -1        90-3.40944E-05 1.25120E-03 3.77276E-04
 -1        91 4.08593E-05 9.13070E-04 4.32304E-04
 -1        92-5.43343E-05 3.69148E-04 2.84103E-04
 -1        98 0.00000E+00 0.00000E+00 0.00000E+00
 -1        99 0.00000E+00 0.00000E+00 0.00000E+00
 -1       100 0.00000E+00 0.00000E+00 0.00000E+00
 -1       101 0.00000E+00 0.00000E+00 0.00000E+00
 -1       102 0.00000E+00 0.00000E+00 0.00000E+00
 -1       124 4.56496E-06 1.47970E-03-2.20498E-04
 -1       125 3.10755E-08 1.76880E-03-2.31307E-04
 -1       126-4.56369E-06 1.47964E-03-2.20441E-04
 -1       127-2.24347E-08 1.30177E-03-4.17387E-04
 -1       128-3.41286E-06 9.59160E-04-4.63527E-04
 -1       129 7.45678E-09 8.89316E-04-4.72328E-04
 -1       130 3.40556E-06 9.59153E-04-4.63535E-04
 -1       131-7.47068E-09 3.75381E-04-2.76025E-04
 -1       153 1.25033E-04 1.91709E-03-1.03860E-04
 -1       154 4.25488E-07 1.69382E-03 9.37124E-08
 -1       155-1.24895E-04 1.91820E-03 1.04119E-04
 -1       156 5.02448E-07 1.40661E-03 3.23982E-07
 -1       157-2.50274E-05 7.92930E-04-1.86027E-04
 -1       158-3.64715E-07 8.09889E-04 1.48752E-07
 -1       159 2.48655E-05 7.92782E-04 1.86124E-04
 -1       160-1.71867E-07 3.08191E-04-2.16921E-08
 -1       182 4.61000E-06 1.47779E-03 2.20671E-04
 -1       183 6.68673E-08 1.77223E-03 2.31447E-04
 -1       184-4.49522E-06 1.47785E-03 2.20699E-04
 -1       185 2.43965E-08 1.30294E-03 4.17245E-04
 -1       186-3.20042E-06 9.60156E-04 4.63705E-04
 -1       187 1.54335E-08 8.89532E-04 4.72432E-04
 -1       188 3.22523E-06 9.60171E-04 4.63703E-04
 -1       189 2.78875E-09 3.75354E-04 2.76072E-04
 -1       211 1.24947E-04 1.91833E-03 1.04092E-04
 -1       212-4.09213E-07 1.69388E-03 1.10568E-07
 -1       213-1.25066E-04 1.91711E-03-1.03841E-04
 -1       214-5.06781E-07 1.40665E-03 3.13222E-07
 -1       215-2.48473E-05 7.92792E-04 1.86125E-04
 -1       216 3.81769E-07 8.09902E-04 1.40461E-07
 -1       217 2.50219E-05 7.92956E-04-1.86036E-04
 -1       218 1.72667E-07 3.08200E-04-1.94488E-08
 -1       250 2.77953E-09 1.90961E-03-1.03063E-04
 -1       251-1.12225E-07 1.20953E-03 6.08008E-08
 -1       252-4.08138E-08 1.54243E-03 7.56666E-08
 -1       253 8.92526E-08 1.20950E-03 4.21975E-08
 -1       254 1.57416E-08 1.91107E-03 1.03445E-04
 -1       255 7.17191E-09 1.37518E-03 1.58858E-07
 -1       256-8.55085E-10 7.83329E-04-2.07284E-04
 -1       257 1.80730E-07 9.14027E-04 5.96387E-08
 -1       258-5.54812E-09 8.12365E-04 7.58258E-08
 -1       259-1.80890E-07 9.14021E-04 6.64403E-08
 -1       260 4.35521E-09 7.83469E-04 2.07405E-04
 -1       261 4.05536E-09 3.48465E-04 4.97218E-09
 -3
    1PSTEP                         3           3           1          
  100CL  103 1.50000E-02          81                     1    3           1
 -4  DISP        4    1
 -5  D1          1    2    1    0
 -5  D2          1    2    2    0
 -5  D3          1    2    3    0
 -5  ALL         1    2    0    0    1ALL
 -1         5 0.00000E+00 0.00000E+00 0.00000E+00
 -1         6 0.00000E+00 0.00000E+00 0.00000E+00
 -1         7 0.00000E+00 0.00000E+00 0.00000E+00
 -1         8 0.00000E+00 0.00000E+00 0.00000E+00
 -1        21 0.00000E+00 0.00000E+00 0.00000E+00
 -1        22 0.00000E+00 0.00000E+00 0.00000E+00
 -1        23 0.00000E+00 0.00000E+00 0.00000E+00
 -1        24 0.00000E+00 0.00000E+00 0.00000E+00
 -1        25 0.00000E+00 0.00000E+00 0.00000E+00
 -1        26 0.00000E+00 0.00000E+00 0.00000E+00
 -1        27 0.00000E+00 0.00000E+00 0.00000E+00
 -1        28 0.00000E+00 0.00000E+00 0.00000E+00
 -1        29 0.00000E+00 0.00000E+00 0.00000E+00
 -1        30 0.00000E+00 0.00000E+00 0.00000E+00
 -1        31 0.00000E+00 0.00000E+00 0.00000E+00
 -1        32 0.00000E+00 0.00000E+00 0.00000E+00
 -1        44 1.19447E-04-1.27570E-03 1.85487E-04
 -1        45 2.71426E-05-9.90431E-04 2.98915E-04
 -1        46-3.27864E-05-7.23898E-04 3.42214E-04
 -1        47 4.29231E-05-2.92964E-04 2.25096E-04
 -1        48-4.29163E-05-2.92963E-04 2.25091E-04
 -1        49 3.28334E-05-7.23889E-04 3.42197E-04
 -1        50-2.71130E-05-9.90433E-04 2.98867E-04
 -1        51-1.19320E-04-1.27563E-03 1.85382E-04
 -1        74-1.21471E-04-1.27461E-03-1.85380E-04
 -1        75-2.80629E-05-9.89704E-04-2.98832E-04
 -1        76 3.28846E-05-7.23829E-04-3.42173E-04
 -1        77-4.26511E-05-2.93123E-04-2.25099E-04
 -1        89 1.21508E-04-1.27474E-03-1.85464E-04
 -1        90 2.81154E-05-9.89702E-04-2.98876E-04
 -1        91-3.28582E-05-7.23843E-04-3.42204E-04
 -1        92 4.26575E-05-2.93125E-04-2.25113E-04
 -1        98 0.00000E+00 0.00000E+00 0.00000E+00
 -1        99 0.00000E+00 0.00000E+00 0.00000E+00
 -1       100 0.00000E+00 0.00000E+00 0.00000E+00
 -1       101 0.00000E+00 0.00000E+00 0.00000E+00
 -1       102 0.00000E+00 0.00000E+00 0.00000E+00
 -1       124-1.90545E-06-1.17172E-03 1.74711E-04
 -1       125 1.99455E-08-1.40152E-03 1.83298E-04
 -1       126 1.99319E-06-1.17173E-03 1.74725E-04
 -1       127 3.62250E-08-1.03142E-03 3.30211E-04
 -1       128 2.34632E-06-7.59865E-04 3.67162E-04
 -1       129 3.81154E-09-7.04256E-04 3.74145E-04
 -1       130-2.32125E-06-7.59873E-04 3.67179E-04
 -1       131 4.25687E-09-2.97458E-04 2.18681E-04
 -1       153-9.93320E-05-1.52179E-03 8.23570E-05
 -1       154-5.98539E-07-1.34478E-03 2.75515E-09
 -1       155 1.00270E-04-1.51802E-03-8.23737E-05
 -1       156-1.56369E-07-1.11429E-03 1.03422E-07
 -1       157 1.99355E-05-6.28049E-04 1.47312E-04
 -1       158 3.13543E-07-6.41937E-04 1.91523E-08
 -1       159-2.00852E-05-6.28761E-04-1.47309E-04
 -1       160 4.26514E-08-2.44068E-04-3.64912E-09
 -1       182-6.14209E-06-1.17189E-03-1.74695E-04
 -1       183 3.29389E-08-1.40181E-03-1.83335E-04
 -1       184 6.20057E-06-1.17195E-03-1.74779E-04
 -1       185 1.63974E-08-1.03182E-03-3.30425E-04
 -1       186 3.11007E-06-7.59876E-04-3.67169E-04
 -1       187 1.50479E-08-7.04383E-04-3.74229E-04
 -1       188-3.08437E-06-7.59885E-04-3.67176E-04
 -1       189 2.42684E-09-2.97325E-04-2.18657E-04
 -1       211-1.00192E-04-1.51810E-03-8.24184E-05
 -1       212 6.99964E-07-1.34479E-03-4.27410E-08
 -1       213 9.94623E-05-1.52175E-03 8.23057E-05
 -1       214 2.17865E-07-1.11430E-03 7.06859E-08
 -1       215 2.01077E-05-6.28765E-04-1.47340E-04
 -1       216-2.92450E-07-6.41933E-04-1.97693E-09
 -1       217-1.99043E-05-6.28046E-04 1.47288E-04
 -1       218-3.32084E-08-2.44069E-04-1.31893E-08
 -1       250 4.38211E-08-1.51017E-03 8.18050E-05
 -1       251-1.50524E-06-9.57941E-04-4.89446E-08
 -1       252 7.26499E-08-1.22155E-03-1.94227E-08
 -1       253 1.62365E-06-9.57937E-04-3.23649E-08
 -1       254 5.40213E-08-1.51386E-03-8.17465E-05
 -1       255 2.91021E-08-1.08996E-03-3.77770E-08
 -1       256 9.79773E-09-6.20765E-04 1.64287E-04
 -1       257 2.81947E-07-7.24334E-04-1.20932E-08
 -1       258 1.41023E-08-6.43003E-04-1.00306E-09
 -1       259-2.56460E-07-7.24335E-04-6.79757E-10
 -1       260 1.44610E-08-6.20041E-04-1.64300E-04
 -1       261 2.01762E-09-2.76013E-04-5.19596E-09
 -3
    1PSTEP                         4           4           1          
  100CL  104 2.00000E-02          81                     1    4           1
 -4  DISP        4    1
 -5  D1          1    2    1    0
 -5  D2          1    2    2    0
 -5  D3          1    2    3    0
 -5  ALL         1    2    0    0    1ALL
 -1         5 0.00000E+00 0.00000E+00 0.00000E+00
 -1         6 0.00000E+00 0.00000E+00 0.00000E+00
 -1         7 0.00000E+00 0.00000E+00 0.00000E+00
 -1         8 0.00000E+00 0.00000E+00 0.00000E+00
 -1        21 0.00000E+00 0.00000E+00 0.00000E+00
 -1        22 0.00000E+00 0.00000E+00 0.00000E+00
 -1        23 0.00000E+00 0.00000E+00 0.00000E+00
 -1        24 0.00000E+00 0.00000E+00 0.00000E+00
 -1        25 0.00000E+00 0.00000E+00 0.00000E+00
 -1        26 0.00000E+00 0.00000E+00 0.00000E+00
 -1        27 0.00000E+00 0.00000E+00 0.00000E+00
 -1        28 0.00000E+00 0.00000E+00 0.00000E+00
 -1        29 0.00000E+00 0.00000E+00 0.00000E+00
 -1        30 0.00000E+00 0.00000E+00 0.00000E+00
 -1        31 0.00000E+00 0.00000E+00 0.00000E+00
 -1        32 0.00000E+00 0.00000E+00 0.00000E+00
 -1        44-9.49826E-05 9.87798E-04-1.43898E-04
 -1        45-2.22408E-05 7.67566E-04-2.31895E-04
 -1        46 2.58569E-05 5.62177E-04-2.65569E-04
 -1        47-3.29742E-05 2.27710E-04-1.74698E-04
 -1        48 3.29798E-05 2.27716E-04-1.74714E-04
 -1        49-2.58549E-05 5.62186E-04-2.65586E-04
 -1        50 2.23151E-05 7.67546E-04-2.31902E-04
 -1        51 9.50563E-05 9.87744E-04-1.43912E-04
 -1        74 9.28177E-05 9.89975E-04 1.43896E-04
 -1        75 2.10697E-05 7.68806E-04 2.31888E-04
 -1        76-2.53622E-05 5.61689E-04 2.65589E-04
 -1        77 3.33274E-05 2.27364E-04 1.74717E-04
 -1        89-9.27384E-05 9.90040E-04 1.43886E-04
 -1        90-2.09964E-05 7.68817E-04 2.31883E-04
 -1        91 2.53628E-05 5.61682E-04 2.65566E-04
 -1        92-3.33226E-05 2.27358E-04 1.74698E-04
 -1        98 0.00000E+00 0.00000E+00 0.00000E+00
 -1        99 0.00000E+00 0.00000E+00 0.00000E+00
 -1       100 0.00000E+00 0.00000E+00 0.00000E+00
 -1       101 0.00000E+00 0.00000E+00 0.00000E+00
 -1       102 0.00000E+00 0.00000E+00 0.00000E+00
 -1       124 4.43053E-06 9.10100E-04-1.35614E-04
 -1       125 7.06248E-08 1.08709E-03-1.42283E-04
 -1       126-4.33604E-06 9.10093E-04-1.35587E-04
 -1       127 1.42943E-08 8.00472E-04-2.56561E-04
 -1       128-2.37061E-06 5.89632E-04-2.84952E-04
 -1       129 2.18181E-08 5.46906E-04-2.90464E-04
 -1       130 2.39669E-06 5.89634E-04-2.84949E-04
 -1       131 5.01085E-12 2.30877E-04-1.69726E-04
 -1       153 7.79573E-05 1.17804E-03-6.39302E-05
 -1       154-3.91365E-07 1.04376E-03-3.99586E-08
 -1       155-7.71970E-05 1.18016E-03 6.39127E-05
 -1       156 6.21905E-08 8.64984E-04 1.40799E-07
 -1       157-1.56146E-05 4.88005E-04-1.14344E-04
 -1       158 8.83140E-08 4.98116E-04 6.29966E-08
 -1       159 1.54666E-05 4.87538E-04 1.14348E-04
 -1       160-9.66991E-09 1.89408E-04 5.87384E-09
 -1       182 2.24721E-06 9.09302E-04 1.35608E-04
 -1       183 7.24901E-08 1.08787E-03 1.42246E-04
 -1       184-2.14860E-06 9.09302E-04 1.35572E-04
 -1       185 1.22519E-08 8.00427E-04 2.56279E-04
 -1       186-1.89210E-06 5.89796E-04 2.84969E-04
 -1       187 2.09357E-08 5.46733E-04 2.90377E-04
 -1       188 1.91669E-06 5.89799E-04 2.84966E-04
 -1       189-3.68261E-10 2.30898E-04 1.69728E-04
 -1       211 7.72320E-05 1.18021E-03 6.38883E-05
 -1       212 4.22130E-07 1.04375E-03-6.99885E-09
 -1       213-7.79280E-05 1.17799E-03-6.39345E-05
 -1       214-2.39442E-08 8.64987E-04 1.21410E-07
 -1       215-1.54495E-05 4.87529E-04 1.14333E-04
 -1       216-6.31640E-08 4.98113E-04 3.99726E-08
 -1       217 1.56329E-05 4.88013E-04-1.14361E-04
 -1       218 1.78854E-08 1.89408E-04-2.47636E-09
 -1       250 3.96316E-08 1.17443E-03-6.34340E-05
 -1       251-6.86309E-07 7.43331E-04-2.36260E-08
 -1       252-2.66105E-09 9.48313E-04-2.69090E-08
 -1       253 7.08757E-07 7.43335E-04-3.34126E-08
 -1       254 4.04313E-08 1.17301E-03 6.34846E-05
 -1       255 1.89526E-08 8.45929E-04-5.09201E-09
 -1       256 1.36634E-08 4.81412E-04-1.27496E-04
 -1       257 1.68521E-07 5.62226E-04-8.73766E-09
 -1       258 7.62436E-09 4.99124E-04 4.42122E-09
 -1       259-1.51379E-07 5.62227E-04 1.42654E-09
 -1       260 1.31947E-08 4.81724E-04 1.27497E-04
 -1       261 5.65366E-09 2.14233E-04 3.80373E-09
 -3
    1PSTEP                         5           5           1          
  100CL  105 2.50000E-02          81                     1    5           1
 -4  DISP        4    1
 -5  D1          1    2    1    0
 -5  D2          1    2    2    0
 -5  D3          1    2    3    0
 -5  ALL         1    2    0    0    1ALL
 -1         5 0.00000E+00 0.00000E+00 0.00000E+00
 -1         6 0.00000E+00 0.00000E+00 0.00000E+00
 -1         7 0.00000E+00 0.00000E+00 0.00000E+00
 -1         8 0.00000E+00 0.00000E+00 0.00000E+00
 -1        21 0.00000E+00 0.00000E+00 0.00000E+00
 -1        22 0.00000E+00 0.00000E+00 0.00000E+00
 -1        23 0.00000E+00 0.00000E+00 0.00000E+00
 -1        24 0.00000E+00 0.00000E+00 0.00000E+00
 -1        25 0.00000E+00 0.00000E+00 0.00000E+00
 -1        26 0.00000E+00 0.00000E+00 0.00000E+00
 -1        27 0.00000E+00 0.00000E+00 0.00000E+00
 -1        28 0.00000E+00 0.00000E+00 0.00000E+00
 -1        29 0.00000E+00 0.00000E+00 0.00000E+00
 -1        30 0.00000E+00 0.00000E+00 0.00000E+00
 -1        31 0.00000E+00 0.00000E+00 0.00000E+00
 -1        32 0.00000E+00 0.00000E+00 0.00000E+00
 -1        44 7.15494E-05-7.46504E-04 1.08656E-04
 -1        45 1.64536E-05-5.79769E-04 1.75269E-04
 -1        46-1.93865E-05-4.24342E-04 2.00409E-04
 -1        47 2.49362E-05-1.71890E-04 1.31923E-04
 -1        48-2.49349E-05-1.71896E-04 1.31942E-04
 -1        49 1.94162E-05-4.24345E-04 2.00425E-04
 -1        50-1.65063E-05-5.79760E-04 1.75245E-04
 -1        51-7.16249E-05-7.46368E-04 1.08633E-04
 -1        74-7.16778E-05-7.46176E-04-1.08623E-04
 -1        75-1.66020E-05-5.79646E-04-1.75238E-04
 -1        76 1.95893E-05-4.24522E-04-2.00425E-04
 -1        77-2.49074E-05-1.71937E-04-1.31942E-04
 -1        89 7.16825E-05-7.46252E-04-1.08672E-04
 -1        90 1.65261E-05-5.79682E-04-1.75276E-04
 -1        91-1.95536E-05-4.24508E-04-2.00403E-04
 -1        92 2.49069E-05-1.71934E-04-1.31923E-04
 -1        98 0.00000E+00 0.00000E+00 0.00000E+00
 -1        99 0.00000E+00 0.00000E+00 0.00000E+00
 -1       100 0.00000E+00 0.00000E+00 0.00000E+00
 -1       101 0.00000E+00 0.00000E+00 0.00000E+00
 -1       102 0.00000E+00 0.00000E+00 0.00000E+00
 -1       124-3.26044E-06-6.86890E-04 1.02393E-04
 -1       125-7.44563E-08-8.20937E-04 1.07505E-04
 -1       126 3.17087E-06-6.86914E-04 1.02380E-04
 -1       127 1.55614E-09-6.04573E-04 1.93443E-04
 -1       128 1.75845E-06-4.45137E-04 2.15143E-04
 -1       129-1.30836E-08-4.12669E-04 2.19310E-04
 -1       130-1.76267E-06-4.45144E-04 2.15142E-04
 -1       131 4.79686E-09-1.74224E-04 1.28102E-04
 -1       153-5.90910E-05-8.90885E-04 4.82581E-05
 -1       154-4.77383E-08-7.89457E-04 9.29407E-09
 -1       155 5.90937E-05-8.91596E-04-4.82975E-05
 -1       156 4.37588E-08-6.52634E-04 4.13901E-09
 -1       157 1.18595E-05-3.68529E-04 8.62721E-05
 -1       158-7.31912E-08-3.76537E-04-1.23371E-10
 -1       159-1.18789E-05-3.68412E-04-8.62699E-05
 -1       160-7.04591E-12-1.42998E-04 5.09490E-09
 -1       182-2.36466E-06-6.87005E-04-1.02423E-04
 -1       183-6.93210E-08-8.20842E-04-1.07537E-04
 -1       184 2.31445E-06-6.86990E-04-1.02374E-04
 -1       185 7.95857E-09-6.04555E-04-1.93474E-04
 -1       186 1.62162E-06-4.45116E-04-2.15136E-04
 -1       187-2.27210E-08-4.12619E-04-2.19315E-04
 -1       188-1.63179E-06-4.45119E-04-2.15143E-04
 -1       189 4.10868E-09-1.74238E-04-1.28109E-04
 -1       211-5.90896E-05-8.91679E-04-4.82870E-05
 -1       212-2.91937E-08-7.89482E-04-3.04088E-08
 -1       213 5.90398E-05-8.90799E-04 4.83143E-05
 -1       214-1.75872E-08-6.52623E-04 1.72842E-08
 -1       215 1.18713E-05-3.68406E-04-8.62668E-05
 -1       216 3.75424E-08-3.76552E-04 1.06286E-08
 -1       217-1.18673E-05-3.68545E-04 8.62656E-05
 -1       218 2.01875E-09-1.42998E-04 2.42944E-10
 -1       250-1.07472E-08-8.85260E-04 4.79630E-05
 -1       251 4.31162E-07-5.61383E-04-4.63950E-08
 -1       252 6.64042E-08-7.14679E-04 9.02982E-09
 -1       253-4.11935E-07-5.61364E-04 3.44988E-08
 -1       254-9.88819E-09-8.84378E-04-4.79460E-05
 -1       255-1.57762E-08-6.38971E-04-1.96008E-09
 -1       256 2.22126E-09-3.63353E-04 9.63095E-05
 -1       257-6.55916E-08-4.24490E-04 9.70214E-09
 -1       258 1.50597E-08-3.76444E-04-2.20719E-09
 -1       259 6.67225E-08-4.24483E-04-1.03013E-08
 -1       260-2.13875E-09-3.63516E-04-9.63161E-05
 -1       261-5.86836E-09-1.61736E-04 2.44308E-09
 -3
    1PSTEP                         6           6           1          
  100CL  106 3.00000E-02          81                     1    6           1
 -4  DISP        4    1
 -5  D1          1    2    1    0
 -5  D2          1    2    2    0
 -5  D3          1    2    3    0
 -5  ALL         1    2    0    0    1ALL
 -1         5 0.00000E+00 0.00000E+00 0.00000E+00
 -1         6 0.00000E+00 0.00000E+00 0.00000E+00
 -1         7 0.00000E+00 0.00000E+00 0.00000E+00
 -1         8 0.00000E+00 0.00000E+00 0.00000E+00
 -1        21 0.00000E+00 0.00000E+00 0.00000E+00
 -1        22 0.00000E+00 0.00000E+00 0.00000E+00
 -1        23 0.00000E+00 0.00000E+00 0.00000E+00
 -1        24 0.00000E+00 0.00000E+00 0.00000E+00
 -1        25 0.00000E+00 0.00000E+00 0.00000E+00
 -1        26 0.00000E+00 0.00000E+00 0.00000E+00
 -1        27 0.00000E+00 0.00000E+00 0.00000E+00
 -1        28 0.00000E+00 0.00000E+00 0.00000E+00
 -1        29 0.00000E+00 0.00000E+00 0.00000E+00
 -1        30 0.00000E+00 0.00000E+00 0.00000E+00
 -1        31 0.00000E+00 0.00000E+00 0.00000E+00
 -1        32 0.00000E+00 0.00000E+00 0.00000E+00
 -1        44-5.18144E-05 5.40871E-04-7.87536E-05
 -1        45-1.20486E-05 4.20311E-04-1.26952E-04
 -1        46 1.41505E-05 3.07701E-04-1.45346E-04
 -1        47-1.80825E-05 1.24620E-04-9.56241E-05