    1C
    1UUSER                                                              
    1UDATE              15.july.2018                                    
    1UTIME              23:42:27                                        
    1UHOST                                                              
    1UPGM               CalculiX                                        
    1UVERSION           Version 2.13                             
    1UCOMPILETIME       jue jun 14 00:40:39 CEST 2018                    
    1UDIR                                                               
    1UDBN                                                               
    1UMAT    1EL                                                        
    2C                           201                                     1
 -1         1 0.00000E+00 0.00000E+00 0.00000E+00
 -1         2 1.00000E+00 0.00000E+00 0.00000E+00
 -1         3 1.00000E+00 1.00000E+00 0.00000E+00
 -1         4 0.00000E+00 1.00000E+00 0.00000E+00
 -1         9 2.50000E-01 0.00000E+00 0.00000E+00
 -1        10 5.00000E-01 0.00000E+00 0.00000E+00
 -1        11 7.50000E-01 0.00000E+00 0.00000E+00
 -1        12 1.00000E+00 2.50000E-01 0.00000E+00
 -1        13 1.00000E+00 5.00000E-01 0.00000E+00
 -1        14 1.00000E+00 7.50000E-01 0.00000E+00
 -1        15 7.50000E-01 1.00000E+00 0.00000E+00
 -1        16 5.00000E-01 1.00000E+00 0.00000E+00
 -1        17 2.50000E-01 1.00000E+00 0.00000E+00
 -1        18 0.00000E+00 7.50000E-01 0.00000E+00
 -1        19 0.00000E+00 5.00000E-01 0.00000E+00
 -1        20 0.00000E+00 2.50000E-01 0.00000E+00
 -1        33 1.00000E+00 0.00000E+00 5.00000E-01
 -1        34 1.00000E+00 0.00000E+00 1.00000E+00
 -1        35 1.00000E+00 0.00000E+00 1.50000E+00
 -1        36 1.00000E+00 0.00000E+00 2.00000E+00
 -1        37 1.00000E+00 0.00000E+00 2.50000E+00
 -1        38 1.00000E+00 0.00000E+00 3.00000E+00
 -1        39 1.00000E+00 0.00000E+00 3.50000E+00
 -1        40 1.00000E+00 0.00000E+00 4.00000E+00
 -1        41 1.00000E+00 0.00000E+00 4.50000E+00
 -1        42 1.00000E+00 0.00000E+00 5.00000E+00
 -1        43 1.00000E+00 0.00000E+00 5.50000E+00
 -1        44 1.00000E+00 0.00000E+00 6.00000E+00
 -1        51 0.00000E+00 0.00000E+00 6.00000E+00
 -1        52 0.00000E+00 0.00000E+00 5.50000E+00
 -1        53 0.00000E+00 0.00000E+00 5.00000E+00
 -1        54 0.00000E+00 0.00000E+00 4.50000E+00
 -1        55 0.00000E+00 0.00000E+00 4.00000E+00
 -1        56 0.00000E+00 0.00000E+00 3.50000E+00
 -1        57 0.00000E+00 0.00000E+00 3.00000E+00
 -1        58 0.00000E+00 0.00000E+00 2.50000E+00
 -1        59 0.00000E+00 0.00000E+00 2.00000E+00
 -1        60 0.00000E+00 0.00000E+00 1.50000E+00
 -1        61 0.00000E+00 0.00000E+00 1.00000E+00
 -1        62 0.00000E+00 0.00000E+00 5.00000E-01
 -1        63 1.00000E+00 1.00000E+00 5.00000E-01
 -1        64 1.00000E+00 1.00000E+00 1.00000E+00
 -1        65 1.00000E+00 1.00000E+00 1.50000E+00
 -1        66 1.00000E+00 1.00000E+00 2.00000E+00
 -1        67 1.00000E+00 1.00000E+00 2.50000E+00
 -1        68 1.00000E+00 1.00000E+00 3.00000E+00
 -1        69 1.00000E+00 1.00000E+00 3.50000E+00
 -1        70 1.00000E+00 1.00000E+00 4.00000E+00
 -1        71 1.00000E+00 1.00000E+00 4.50000E+00
 -1        72 1.00000E+00 1.00000E+00 5.00000E+00
 -1        73 1.00000E+00 1.00000E+00 5.50000E+00
 -1        74 1.00000E+00 1.00000E+00 6.00000E+00
 -1        78 0.00000E+00 1.00000E+00 5.00000E-01
 -1        79 0.00000E+00 1.00000E+00 1.00000E+00
 -1        80 0.00000E+00 1.00000E+00 1.50000E+00
 -1        81 0.00000E+00 1.00000E+00 2.00000E+00
 -1        82 0.00000E+00 1.00000E+00 2.50000E+00
 -1        83 0.00000E+00 1.00000E+00 3.00000E+00
 -1        84 0.00000E+00 1.00000E+00 3.50000E+00
 -1        85 0.00000E+00 1.00000E+00 4.00000E+00
 -1        86 0.00000E+00 1.00000E+00 4.50000E+00
 -1        87 0.00000E+00 1.00000E+00 5.00000E+00
 -1        88 0.00000E+00 1.00000E+00 5.50000E+00
 -1        89 0.00000E+00 1.00000E+00 6.00000E+00
 -1        93 5.00000E-01 2.50000E-01 0.00000E+00
 -1        94 2.50000E-01 5.00000E-01 0.00000E+00
 -1        95 5.00000E-01 5.00000E-01 0.00000E+00
 -1        96 7.50000E-01 5.00000E-01 0.00000E+00
 -1        97 5.00000E-01 7.50000E-01 0.00000E+00
 -1       103 5.00000E-01 0.00000E+00 5.00000E-01
 -1       104 2.50000E-01 0.00000E+00 1.00000E+00
 -1       105 5.00000E-01 0.00000E+00 1.00000E+00
 -1       106 7.50000E-01 0.00000E+00 1.00000E+00
 -1       107 5.00000E-01 0.00000E+00 1.50000E+00
 -1       108 2.50000E-01 0.00000E+00 2.00000E+00
 -1       109 5.00000E-01 0.00000E+00 2.00000E+00
 -1       110 7.50000E-01 0.00000E+00 2.00000E+00
 -1       111 5.00000E-01 0.00000E+00 2.50000E+00
 -1       112 2.50000E-01 0.00000E+00 3.00000E+00
 -1       113 5.00000E-01 0.00000E+00 3.00000E+00
 -1       114 7.50000E-01 0.00000E+00 3.00000E+00
 -1       115 5.00000E-01 0.00000E+00 3.50000E+00
 -1       116 2.50000E-01 0.00000E+00 4.00000E+00
 -1       117 5.00000E-01 0.00000E+00 4.00000E+00
 -1       118 7.50000E-01 0.00000E+00 4.00000E+00
 -1       119 5.00000E-01 0.00000E+00 4.50000E+00
 -1       120 2.50000E-01 0.00000E+00 5.00000E+00
 -1       121 5.00000E-01 0.00000E+00 5.00000E+00
 -1       122 7.50000E-01 0.00000E+00 5.00000E+00
 -1       123 5.00000E-01 0.00000E+00 5.50000E+00
 -1       124 2.50000E-01 0.00000E+00 6.00000E+00
 -1       125 5.00000E-01 0.00000E+00 6.00000E+00
 -1       126 7.50000E-01 0.00000E+00 6.00000E+00
 -1       132 1.00000E+00 5.00000E-01 5.00000E-01
 -1       133 1.00000E+00 2.50000E-01 1.00000E+00
 -1       134 1.00000E+00 5.00000E-01 1.00000E+00
 -1       135 1.00000E+00 7.50000E-01 1.00000E+00
 -1       136 1.00000E+00 5.00000E-01 1.50000E+00
 -1       137 1.00000E+00 2.50000E-01 2.00000E+00
 -1       138 1.00000E+00 5.00000E-01 2.00000E+00
 -1       139 1.00000E+00 7.50000E-01 2.00000E+00
 -1       140 1.00000E+00 5.00000E-01 2.50000E+00
 -1       141 1.00000E+00 2.50000E-01 3.00000E+00
 -1       142 1.00000E+00 5.00000E-01 3.00000E+00
 -1       143 1.00000E+00 7.50000E-01 3.00000E+00
 -1       144 1.00000E+00 5.00000E-01 3.50000E+00
 -1       145 1.00000E+00 2.50000E-01 4.00000E+00
 -1       146 1.00000E+00 5.00000E-01 4.00000E+00
 -1       147 1.00000E+00 7.50000E-01 4.00000E+00
 -1       148 1.00000E+00 5.00000E-01 4.50000E+00
 -1       149 1.00000E+00 2.50000E-01 5.00000E+00
 -1       150 1.00000E+00 5.00000E-01 5.00000E+00
 -1       151 1.00000E+00 7.50000E-01 5.00000E+00
 -1       152 1.00000E+00 5.00000E-01 5.50000E+00
 -1       153 1.00000E+00 2.50000E-01 6.00000E+00
 -1       154 1.00000E+00 5.00000E-01 6.00000E+00
 -1       155 1.00000E+00 7.50000E-01 6.00000E+00
 -1       161 5.00000E-01 1.00000E+00 5.00000E-01
 -1       162 7.50000E-01 1.00000E+00 1.00000E+00
 -1       163 5.00000E-01 1.00000E+00 1.00000E+00
 -1       164 2.50000E-01 1.00000E+00 1.00000E+00
 -1       165 5.00000E-01 1.00000E+00 1.50000E+00
 -1       166 7.50000E-01 1.00000E+00 2.00000E+00
 -1       167 5.00000E-01 1.00000E+00 2.00000E+00
 -1       168 2.50000E-01 1.00000E+00 2.00000E+00
 -1       169 5.00000E-01 1.00000E+00 2.50000E+00
 -1       170 7.50000E-01 1.00000E+00 3.00000E+00
 -1       171 5.00000E-01 1.00000E+00 3.00000E+00
 -1       172 2.50000E-01 1.00000E+00 3.00000E+00
 -1       173 5.00000E-01 1.00000E+00 3.50000E+00
 -1       174 7.50000E-01 1.00000E+00 4.00000E+00
 -1       175 5.00000E-01 1.00000E+00 4.00000E+00
 -1       176 2.50000E-01 1.00000E+00 4.00000E+00
 -1       177 5.00000E-01 1.00000E+00 4.50000E+00
 -1       178 7.50000E-01 1.00000E+00 5.00000E+00
 -1       179 5.00000E-01 1.00000E+00 5.00000E+00
 -1       180 2.50000E-01 1.00000E+00 5.00000E+00
 -1       181 5.00000E-01 1.00000E+00 5.50000E+00
 -1       182 7.50000E-01 1.00000E+00 6.00000E+00
 -1       183 5.00000E-01 1.00000E+00 6.00000E+00
 -1       184 2.50000E-01 1.00000E+00 6.00000E+00
 -1       190 0.00000E+00 5.00000E-01 5.00000E-01
 -1       191 0.00000E+00 7.50000E-01 1.00000E+00
 -1       192 0.00000E+00 5.00000E-01 1.00000E+00
 -1       193 0.00000E+00 2.50000E-01 1.00000E+00
 -1       194 0.00000E+00 5.00000E-01 1.50000E+00
 -1       195 0.00000E+00 7.50000E-01 2.00000E+00
 -1       196 0.00000E+00 5.00000E-01 2.00000E+00
 -1       197 0.00000E+00 2.50000E-01 2.00000E+00
 -1       198 0.00000E+00 5.00000E-01 2.50000E+00
 -1       199 0.00000E+00 7.50000E-01 3.00000E+00
 -1       200 0.00000E+00 5.00000E-01 3.00000E+00
 -1       201 0.00000E+00 2.50000E-01 3.00000E+00
 -1       202 0.00000E+00 5.00000E-01 3.50000E+00
 -1       203 0.00000E+00 7.50000E-01 4.00000E+00
 -1       204 0.00000E+00 5.00000E-01 4.00000E+00
 -1       205 0.00000E+00 2.50000E-01 4.00000E+00
 -1       206 0.00000E+00 5.00000E-01 4.50000E+00
 -1       207 0.00000E+00 7.50000E-01 5.00000E+00
 -1       208 0.00000E+00 5.00000E-01 5.00000E+00
 -1       209 0.00000E+00 2.50000E-01 5.00000E+00
 -1       210 0.00000E+00 5.00000E-01 5.50000E+00
 -1       211 0.00000E+00 7.50000E-01 6.00000E+00
 -1       212 0.00000E+00 5.00000E-01 6.00000E+00
 -1       213 0.00000E+00 2.50000E-01 6.00000E+00
 -1       219 5.00000E-01 5.00000E-01 5.00000E-01
 -1       220 5.00000E-01 2.50000E-01 1.00000E+00
 -1       221 2.50000E-01 5.00000E-01 1.00000E+00
 -1       222 5.00000E-01 5.00000E-01 1.00000E+00
 -1       223 7.50000E-01 5.00000E-01 1.00000E+00
 -1       224 5.00000E-01 7.50000E-01 1.00000E+00
 -1       225 5.00000E-01 5.00000E-01 1.50000E+00
 -1       226 5.00000E-01 2.50000E-01 2.00000E+00
 -1       227 2.50000E-01 5.00000E-01 2.00000E+00
 -1       228 5.00000E-01 5.00000E-01 2.00000E+00
 -1       229 7.50000E-01 5.00000E-01 2.00000E+00
 -1       230 5.00000E-01 7.50000E-01 2.00000E+00
 -1       231 5.00000E-01 5.00000E-01 2.50000E+00
 -1       232 5.00000E-01 2.50000E-01 3.00000E+00
 -1       233 2.50000E-01 5.00000E-01 3.00000E+00
 -1       234 5.00000E-01 5.00000E-01 3.00000E+00
 -1       235 7.50000E-01 5.00000E-01 3.00000E+00
 -1       236 5.00000E-01 7.50000E-01 3.00000E+00
 -1       237 5.00000E-01 5.00000E-01 3.50000E+00
 -1       238 5.00000E-01 2.50000E-01 4.00000E+00
 -1       239 2.50000E-01 5.00000E-01 4.00000E+00
 -1       240 5.00000E-01 5.00000E-01 4.00000E+00
 -1       241 7.50000E-01 5.00000E-01 4.00000E+00
 -1       242 5.00000E-01 7.50000E-01 4.00000E+00
 -1       243 5.00000E-01 5.00000E-01 4.50000E+00
 -1       244 5.00000E-01 2.50000E-01 5.00000E+00
 -1       245 2.50000E-01 5.00000E-01 5.00000E+00
 -1       246 5.00000E-01 5.00000E-01 5.00000E+00
 -1       247 7.50000E-01 5.00000E-01 5.00000E+00
 -1       248 5.00000E-01 7.50000E-01 5.00000E+00
 -1       249 5.00000E-01 5.00000E-01 5.50000E+00
 -1       250 5.00000E-01 2.50000E-01 6.00000E+00
 -1       251 2.50000E-01 5.00000E-01 6.00000E+00
 -1       252 5.00000E-01 5.00000E-01 6.00000E+00
 -1       253 7.50000E-01 5.00000E-01 6.00000E+00
 -1       254 5.00000E-01 7.50000E-01 6.00000E+00
 -3
    3C                            24                                     1
 -1         1    4    0    1
 -2         1        10        95        19        61       105       222       192         9        93
 -2        94        20        62       103       219       190       104       220       221       193
 -1         2    4    0    1
 -2        10         2        13        95       105        34       134       222        11        12
 -2        96        93       103        33       132       219       106       133       223       220
 -1         3    4    0    1
 -2        19        95        16         4       192       222       163        79        94        97
 -2        17        18       190       219       161        78       221       224       164       191
 -1         4    4    0    1
 -2        95        13         3        16       222       134        64       163        96        14
 -2        15        97       219       132        63       161       223       135       162       224
 -1         5    4    0    1
 -2        61       105       222       192        59       109       228       196       104       220
 -2       221       193        60       107       225       194       108       226       227       197
 -1         6    4    0    1
 -2       105        34       134       222       109        36       138       228       106       133
 -2       223       220       107        35       136       225       110       137       229       226
 -1         7    4    0    1
 -2       192       222       163        79       196       228       167        81       221       224
 -2       164       191       194       225       165        80       227       230       168       195
 -1         8    4    0    1
 -2       222       134        64       163       228       138        66       167       223       135
 -2       162       224       225       136        65       165       229       139       166       230
 -1         9    4    0    1
 -2        59       109       228       196        57       113       234       200       108       226
 -2       227       197        58       111       231       198       112       232       233       201
 -1        10    4    0    1
 -2       109        36       138       228       113        38       142       234       110       137
 -2       229       226       111        37       140       231       114       141       235       232
 -1        11    4    0    1
 -2       196       228       167        81       200       234       171        83       227       230
 -2       168       195       198       231       169        82       233       236       172       199
 -1        12    4    0    1
 -2       228       138        66       167       234       142        68       171       229       139
 -2       166       230       231       140        67       169       235       143       170       236
 -1        13    4    0    1
 -2        57       113       234       200        55       117       240       204       112       232
 -2       233       201        56       115       237       202       116       238       239       205
 -1        14    4    0    1
 -2       113        38       142       234       117        40       146       240       114       141
 -2       235       232       115        39       144       237       118       145       241       238
 -1        15    4    0    1
 -2       200       234       171        83       204       240       175        85       233       236
 -2       172       199       202       237       173        84       239       242       176       203
 -1        16    4    0    1
 -2       234       142        68       171       240       146        70       175       235       143
 -2       170       236       237       144        69       173       241       147       174       242
 -1        17    4    0    1
 -2        55       117       240       204        53       121       246       208       116       238
 -2       239       205        54       119       243       206       120       244       245       209
 -1        18    4    0    1
 -2       117        40       146       240       121        42       150       246       118       145
 -2       241       238       119        41       148       243       122       149       247       244
 -1        19    4    0    1
 -2       204       240       175        85       208       246       179        87       239       242
 -2       176       203       206       243       177        86       245       248       180       207
 -1        20    4    0    1
 -2       240       146        70       175       246       150        72       179       241       147
 -2       174       242       243       148        71       177       247       151       178       248
 -1        21    4    0    1
 -2        53       121       246       208        51       125       252       212       120       244
 -2       245       209        52       123       249       210       124       250       251       213
 -1        22    4    0    1
 -2       121        42       150       246       125        44       154       252       122       149
 -2       247       244       123        43       152       249       126       153       253       250
 -1        23    4    0    1
 -2       208       246       179        87       212       252       183        89       245       248
 -2       180       207       210       249       181        88       251       254       184       211
 -1        24    4    0    1
 -2       246       150        72       179       252       154        74       183       247       151
 -2       178       248       249       152        73       181       253       155       182       254
 -3
    1PSTEP                         1           1           1          
  100CL  101 5.00000E-03         201                     1    1           1
 -4  DISP        4    1
 -5  D1          1    2    1    0
 -5  D2          1    2    2    0
 -5  D3          1    2    3    0
 -5  ALL         1    2    0    0    1ALL
 -1         1 0.00000E+00 0.00000E+00 0.00000E+00
 -1         2 0.00000E+00 0.00000E+00 0.00000E+00
 -1         3 0.00000E+00 0.00000E+00 0.00000E+00
 -1         4 0.00000E+00 0.00000E+00 0.00000E+00
 -1         9 0.00000E+00 0.00000E+00 0.00000E+00
 -1        10 0.00000E+00 0.00000E+00 0.00000E+00
 -1        11 0.00000E+00 0.00000E+00 0.00000E+00
 -1        12 0.00000E+00 0.00000E+00 0.00000E+00
 -1        13 0.00000E+00 0.00000E+00 0.00000E+00
 -1        14 0.00000E+00 0.00000E+00 0.00000E+00
 -1        15 0.00000E+00 0.00000E+00 0.00000E+00
 -1        16 0.00000E+00 0.00000E+00 0.00000E+00
 -1        17 0.00000E+00 0.00000E+00 0.00000E+00
 -1        18 0.00000E+00 0.00000E+00 0.00000E+00
 -1        19 0.00000E+00 0.00000E+00 0.00000E+00
 -1        20 0.00000E+00 0.00000E+00 0.00000E+00
 -1        33 6.38268E-05-1.55656E-04-2.04508E-04
 -1        34 3.13290E-05-4.81927E-04-3.74390E-04
 -1        35 2.57602E-05-9.70896E-04-4.83951E-04
 -1        36 8.14562E-06-1.52854E-03-5.40992E-04
 -1        37-5.17496E-06-2.11216E-03-5.47825E-04
 -1        38-2.11278E-05-2.69506E-03-5.19160E-04
 -1        39-4.25704E-05-3.19611E-03-3.84792E-04
 -1        40-4.31758E-05-3.54406E-03-2.09612E-04
 -1        41-4.43168E-05-3.58171E-03-6.39138E-05
 -1        42-6.14161E-05-3.74121E-03-1.48249E-04
 -1        43 6.20848E-05-3.47351E-03 8.57820E-05
 -1        44-6.03789E-05-3.46550E-03 4.48618E-04
 -1        51 6.03757E-05-3.46551E-03 4.48620E-04
 -1        52-6.20948E-05-3.47351E-03 8.57840E-05
 -1        53 6.14053E-05-3.74121E-03-1.48247E-04
 -1        54 4.43040E-05-3.58171E-03-6.39134E-05
 -1        55 4.31641E-05-3.54406E-03-2.09612E-04
 -1        56 4.25593E-05-3.19611E-03-3.84793E-04
 -1        57 2.11185E-05-2.69506E-03-5.19162E-04
 -1        58 5.16741E-06-2.11216E-03-5.47827E-04
 -1        59-8.15099E-06-1.52854E-03-5.40994E-04
 -1        60-2.57637E-05-9.70896E-04-4.83953E-04
 -1        61-3.13308E-05-4.81927E-04-3.74391E-04
 -1        62-6.38274E-05-1.55656E-04-2.04509E-04
 -1        63-6.26562E-05-1.53928E-04 2.01088E-04
 -1        64-3.11719E-05-4.81370E-04 3.67050E-04
 -1        65-2.34239E-05-9.70434E-04 4.73679E-04
 -1        66-7.93474E-06-1.53504E-03 5.27325E-04
 -1        67 5.00156E-06-2.10242E-03 5.30961E-04
 -1        68 1.45931E-05-2.69558E-03 4.94039E-04
 -1        69 5.86520E-05-3.20676E-03 3.58260E-04
 -1        70 6.60006E-05-3.63538E-03 1.84644E-04
 -1        71-5.47620E-06-3.45955E-03 3.34377E-05
 -1        72-1.04464E-04-3.47846E-03 7.89914E-05
 -1        73 2.02567E-04-3.88874E-03-1.68584E-04
 -1        74 3.18305E-04-4.41212E-03-4.94539E-04
 -1        78 6.26556E-05-1.53928E-04 2.01087E-04
 -1        79 3.11702E-05-4.81370E-04 3.67048E-04
 -1        80 2.34204E-05-9.70434E-04 4.73677E-04
 -1        81 7.92941E-06-1.53504E-03 5.27323E-04
 -1        82-5.00913E-06-2.10242E-03 5.30959E-04
 -1        83-1.46023E-05-2.69558E-03 4.94038E-04
 -1        84-5.86632E-05-3.20676E-03 3.58258E-04
 -1        85-6.60121E-05-3.63538E-03 1.84644E-04
 -1        86 5.46322E-06-3.45955E-03 3.34381E-05
 -1        87 1.04453E-04-3.47846E-03 7.89931E-05
 -1        88-2.02577E-04-3.88874E-03-1.68583E-04
 -1        89-3.18307E-04-4.41212E-03-4.94537E-04
 -1        93 0.00000E+00 0.00000E+00 0.00000E+00
 -1        94 0.00000E+00 0.00000E+00 0.00000E+00
 -1        95 0.00000E+00 0.00000E+00 0.00000E+00
 -1        96 0.00000E+00 0.00000E+00 0.00000E+00
 -1        97 0.00000E+00 0.00000E+00 0.00000E+00
 -1       103-2.13516E-10-1.81937E-04-2.00715E-04
 -1       104-1.56254E-05-5.01354E-04-3.80305E-04
 -1       105-8.66464E-10-5.03879E-04-3.82948E-04
 -1       106 1.56237E-05-5.01354E-04-3.80304E-04
 -1       107-1.69696E-09-9.80991E-04-4.86677E-04
 -1       108-3.29879E-06-1.53074E-03-5.44701E-04
 -1       109-2.74630E-09-1.54137E-03-5.43625E-04
 -1       110 3.29335E-06-1.53074E-03-5.44700E-04
 -1       111-3.73799E-09-2.10333E-03-5.51610E-04
 -1       112 7.49327E-06-2.71912E-03-5.21311E-04
 -1       113-4.79832E-09-2.71235E-03-5.22910E-04
 -1       114-7.50272E-06-2.71912E-03-5.21310E-04
 -1       115-5.50764E-09-3.15786E-03-3.93336E-04
 -1       116 3.31035E-05-3.52052E-03-2.04010E-04
 -1       117-6.23943E-09-3.64290E-03-1.83082E-04
 -1       118-3.31156E-05-3.52052E-03-2.04010E-04
 -1       119-6.20750E-09-3.55517E-03-6.57498E-05
 -1       120-7.18421E-06-3.91184E-03-1.12711E-04
 -1       121-6.21849E-09-3.76580E-03-1.17672E-04
 -1       122 7.17249E-06-3.91184E-03-1.12711E-04
 -1       123-4.93566E-09-3.48403E-03-2.55800E-05
 -1       124 1.49974E-04-2.96633E-03 4.29671E-04
 -1       125-3.33370E-09-3.58969E-03 4.48912E-04
 -1       126-1.49979E-04-2.96633E-03 4.29668E-04
 -1       132 7.14771E-07-1.18680E-04-1.59147E-06
 -1       133 1.61317E-05-4.69663E-04-1.78002E-04
 -1       134 8.87485E-07-4.74376E-04-2.86017E-06
 -1       135-1.53983E-05-4.69772E-04 1.71215E-04
 -1       136-1.67661E-07-9.53365E-04-5.55129E-06
 -1       137 4.80259E-06-1.52663E-03-2.68598E-04
 -1       138 5.10602E-07-1.51882E-03-7.31812E-06
 -1       139-3.67077E-06-1.52833E-03 2.55230E-04
 -1       140 1.69221E-06-2.12628E-03-9.14079E-06
 -1       141-1.04661E-05-2.68051E-03-2.44300E-04
 -1       142 5.52710E-06-2.68702E-03-5.06311E-06
 -1       143 1.12991E-05-2.68670E-03 2.24246E-04
 -1       144-8.89997E-06-3.22021E-03-1.26308E-05
 -1       145-2.03230E-05-3.56301E-03-1.31995E-04
 -1       146-1.29955E-05-3.46600E-03-2.47068E-05
 -1       147 1.81555E-05-3.58718E-03 1.00815E-04
 -1       148 2.70707E-05-3.68208E-03-2.36661E-05
 -1       149-3.28155E-05-3.42241E-03-4.68071E-05
 -1       150 8.52747E-05-3.44946E-03-1.92327E-06
 -1       151 2.83872E-05-3.35477E-03 1.58111E-08
 -1       152-1.26984E-04-3.72214E-03 1.17744E-05
 -1       153 6.99868E-05-3.63616E-03 1.91173E-04
 -1       154-1.20342E-04-2.50294E-03-2.06619E-05
 -1       155-6.52540E-05-3.88890E-03-2.38101E-04
 -1       161-2.14170E-10-1.80736E-04 1.97003E-04
 -1       162-1.53732E-05-5.00715E-04 3.73597E-04
 -1       163-8.72742E-10-5.01429E-04 3.75769E-04
 -1       164 1.53715E-05-5.00715E-04 3.73596E-04
 -1       165-1.69080E-09-9.81057E-04 4.76668E-04
 -1       166-3.95072E-06-1.52810E-03 5.30663E-04
 -1       167-2.76006E-09-1.53732E-03 5.32891E-04
 -1       168 3.94530E-06-1.52810E-03 5.30662E-04
 -1       169-3.72185E-09-2.10419E-03 5.30951E-04
 -1       170 7.51337E-06-2.71904E-03 5.01382E-04
 -1       171-4.83575E-09-2.68101E-03 4.96968E-04
 -1       172-7.52280E-06-2.71904E-03 5.01382E-04
 -1       173-5.47134E-09-3.17851E-03 3.69073E-04
 -1       174 3.14860E-05-3.46216E-03 1.71098E-04
 -1       175-6.32828E-09-3.56218E-03 1.72701E-04
 -1       176-3.14981E-05-3.46216E-03 1.71097E-04
 -1       177-6.12535E-09-3.51210E-03 2.08390E-05
 -1       178-4.47555E-05-4.00902E-03 7.16598E-05
 -1       179-6.50495E-09-3.57966E-03 4.83197E-05
 -1       180 4.47438E-05-4.00902E-03 7.16600E-05
 -1       181-4.71757E-09-3.68431E-03-6.05261E-05
 -1       182 1.14714E-04-2.56271E-03-4.71201E-04
 -1       183-4.14010E-09-4.35593E-03-4.76287E-04
 -1       184-1.14720E-04-2.56271E-03-4.71198E-04
 -1       190-7.15425E-07-1.18680E-04-1.59218E-06
 -1       191 1.53965E-05-4.69772E-04 1.71214E-04
 -1       192-8.89310E-07-4.74376E-04-2.86152E-06
 -1       193-1.61335E-05-4.69664E-04-1.78003E-04
 -1       194 1.64177E-07-9.53365E-04-5.55298E-06
 -1       195 3.66535E-06-1.52833E-03 2.55228E-04
 -1       196-5.16116E-07-1.51882E-03-7.32000E-06
 -1       197-4.80803E-06-1.52663E-03-2.68600E-04
 -1       198-1.69963E-06-2.12628E-03-9.14264E-06
 -1       199-1.13084E-05-2.68670E-03 2.24245E-04
 -1       200-5.53667E-06-2.68702E-03-5.06480E-06
 -1       201 1.04567E-05-2.68051E-03-2.44301E-04
 -1       202 8.88916E-06-3.22021E-03-1.26319E-05
 -1       203-1.81675E-05-3.58718E-03 1.00814E-04
 -1       204 1.29830E-05-3.46600E-03-2.47073E-05
 -1       205 2.03109E-05-3.56301E-03-1.31996E-04
 -1       206-2.70827E-05-3.68208E-03-2.36660E-05
 -1       207-2.83987E-05-3.35477E-03 1.72279E-08
 -1       208-8.52880E-05-3.44946E-03-1.92262E-06
 -1       209 3.28036E-05-3.42241E-03-4.68057E-05
 -1       210 1.26975E-04-3.72214E-03 1.17779E-05
 -1       211 6.52464E-05-3.88890E-03-2.38098E-04
 -1       212 1.20332E-04-2.50294E-03-2.06555E-05
 -1       213-6.99943E-05-3.63616E-03 1.91176E-04
 -1       219-2.63184E-10-1.44461E-04-1.42126E-06
 -1       220-8.84205E-10-4.89490E-04-1.83653E-04
 -1       221-4.15158E-07-4.91018E-04-3.62031E-06
 -1       222-8.75627E-10-4.92424E-04-3.78415E-06
 -1       223 4.13397E-07-4.91018E-04-3.61967E-06
 -1       224-8.87371E-10-4.88118E-04 1.76722E-04
 -1       225-1.73417E-09-9.65524E-04-5.10574E-06
 -1       226-2.71707E-09-1.53416E-03-2.72894E-04
 -1       227-3.67078E-07-1.52006E-03-6.83626E-06
 -1       228-2.68860E-09-1.52192E-03-8.42057E-06
 -1       229 3.61636E-07-1.52006E-03-6.83533E-06
 -1       230-2.72418E-09-1.53252E-03 2.57759E-04
 -1       231-3.76720E-09-2.12487E-03-7.43415E-06
 -1       232-4.70264E-09-2.68850E-03-2.49336E-04
 -1       233-2.22609E-06-2.68428E-03-1.26582E-05
 -1       234-4.61637E-09-2.68142E-03-1.39365E-05
 -1       235 2.21667E-06-2.68428E-03-1.26574E-05
 -1       236-4.72001E-09-2.67131E-03 2.27177E-04
 -1       237-5.57713E-09-3.19252E-03-9.29723E-06
 -1       238-6.03067E-09-3.61180E-03-1.24020E-04
 -1       239 5.76562E-06-3.45385E-03-1.43314E-05
 -1       240-5.85763E-09-3.47783E-03-2.00271E-05
 -1       241-5.77770E-06-3.45385E-03-1.43310E-05
 -1       242-6.08168E-09-3.57447E-03 8.84751E-05
 -1       243-6.35819E-09-3.65635E-03-2.11571E-05
 -1       244-5.84036E-09-3.52142E-03-2.04718E-05
 -1       245-3.38052E-05-3.61217E-03-2.61498E-05
 -1       246-5.48722E-09-3.65258E-03-1.96927E-05
 -1       247 3.37930E-05-3.61217E-03-2.61506E-05
 -1       248-5.95204E-09-3.43735E-03-1.00164E-05
 -1       249-5.44815E-09-3.52282E-03-1.33256E-05
 -1       250-3.39571E-09-4.08207E-03 1.74736E-04
 -1       251 3.02959E-05-2.57227E-03-1.04088E-05
 -1       252-3.58727E-09-3.12387E-03-1.59682E-05
 -1       253-3.03047E-05-2.57227E-03-1.04101E-05
 -1       254-3.95751E-09-4.41357E-03-2.53810E-04
 -3
    1PSTEP                         2           2           1          
  100CL  102 1.00000E-02         201                     1    2           1
 -4  DISP        4    1
 -5  D1          1    2    1    0
 -5  D2          1    2    2    0
 -5  D3          1    2    3    0
 -5  ALL         1    2    0    0    1ALL
 -1         1 0.00000E+00 0.00000E+00 0.00000E+00
 -1         2 0.00000E+00 0.00000E+00 0.00000E+00
 -1         3 0.00000E+00 0.00000E+00 0.00000E+00
 -1         4 0.00000E+00 0.00000E+00 0.00000E+00
 -1         9 0.00000E+00 0.00000E+00 0.00000E+00
 -1        10 0.00000E+00 0.00000E+00 0.00000E+00
 -1        11 0.00000E+00 0.00000E+00 0.00000E+00
 -1        12 0.00000E+00 0.00000E+00 0.00000E+00
 -1        13 0.00000E+00 0.00000E+00 0.00000E+00
 -1        14 0.00000E+00 0.00000E+00 0.00000E+00
 -1        15 0.00000E+00 0.00000E+00 0.00000E+00
 -1        16 0.00000E+00 0.00000E+00 0.00000E+00
 -1        17 0.00000E+00 0.00000E+00 0.00000E+00
 -1        18 0.00000E+00 0.00000E+00 0.00000E+00
 -1        19 0.00000E+00 0.00000E+00 0.00000E+00
 -1        20 0.00000E+00 0.00000E+00 0.00000E+00
 -1        33-3.19967E-05 7.91846E-05 1.03018E-04
 -1        34-1.54859E-05 2.44836E-04 1.87755E-04
 -1        35-1.27676E-05 4.92621E-04 2.42755E-04
 -1        36-4.52803E-06 7.74409E-04 2.70091E-04
 -1        37 4.37142E-06 1.07205E-03 2.71883E-04
 -1        38 1.35858E-05 1.36781E-03 2.50316E-04
 -1        39 2.04205E-05 1.60885E-03 1.85254E-04
 -1        40 1.34994E-05 1.78322E-03 9.24746E-05
 -1        41 3.64958E-05 1.81900E-03 2.07984E-05
 -1        42 4.69700E-05 1.87362E-03 1.09829E-05
 -1        43-4.51753E-05 1.69231E-03-7.84727E-05
 -1        44-1.64792E-04 1.59687E-03-2.34002E-04
 -1        51 1.64781E-04 1.59687E-03-2.33972E-04
 -1        52 4.51676E-05 1.69230E-03-7.84772E-05
 -1        53-4.69414E-05 1.87360E-03 1.09925E-05
 -1        54-3.64852E-05 1.81899E-03 2.07964E-05
 -1        55-1.34847E-05 1.78321E-03 9.24741E-05
 -1        56-2.04131E-05 1.60884E-03 1.85254E-04
 -1        57-1.35748E-05 1.36780E-03 2.50318E-04
 -1        58-4.36496E-06 1.07205E-03 2.71883E-04
 -1        59 4.53434E-06 7.74405E-04 2.70091E-04
 -1        60 1.27713E-05 4.92618E-04 2.42755E-04
 -1        61 1.54887E-05 2.44834E-04 1.87756E-04
 -1        62 3.19978E-05 7.91836E-05 1.03018E-04
 -1        63 3.19974E-05 7.91722E-05-1.03004E-04
 -1        64 1.54878E-05 2.44833E-04-1.87726E-04
 -1        65 1.27302E-05 4.92647E-04-2.42714E-04
 -1        66 4.50305E-06 7.74464E-04-2.70039E-04
 -1        67-4.23336E-06 1.07188E-03-2.71817E-04
 -1        68-1.34006E-05 1.36766E-03-2.50209E-04
 -1        69-2.11017E-05 1.60950E-03-1.85145E-04
 -1        70-1.45143E-05 1.78450E-03-9.24018E-05
 -1        71-3.35202E-05 1.81575E-03-2.06662E-05
 -1        72-4.20737E-05 1.86823E-03-1.05833E-05
 -1        73 3.20846E-05 1.70607E-03 7.88177E-05
 -1        74 1.42019E-04 1.62223E-03 2.34105E-04
 -1        78-3.19983E-05 7.91713E-05-1.03004E-04