    1C
    1UUSER                                                              
    1UDATE              17.july.2018                                    
    1UTIME              02:05:57                                        
    1UHOST                                                              
    1UPGM               CalculiX                                        
    1UVERSION           Version 2.13                             
    1UCOMPILETIME       jue jun 14 00:40:39 CEST 2018                    
    1UDIR                                                               
    1UDBN                                                               
    1UMAT    1EL                                                        
    2C                            81                                     1
 -1         5 0.00000E+00 0.00000E+00 8.00000E+00
 -1         6 1.00000E+00 0.00000E+00 8.00000E+00
 -1         7 1.00000E+00 1.00000E+00 8.00000E+00
 -1         8 0.00000E+00 1.00000E+00 8.00000E+00
 -1        21 2.50000E-01 0.00000E+00 8.00000E+00
 -1        22 5.00000E-01 0.00000E+00 8.00000E+00
 -1        23 7.50000E-01 0.00000E+00 8.00000E+00
 -1        24 1.00000E+00 2.50000E-01 8.00000E+00
 -1        25 1.00000E+00 5.00000E-01 8.00000E+00
 -1        26 1.00000E+00 7.50000E-01 8.00000E+00
 -1        27 7.50000E-01 1.00000E+00 8.00000E+00
 -1        28 5.00000E-01 1.00000E+00 8.00000E+00
 -1        29 2.50000E-01 1.00000E+00 8.00000E+00
 -1        30 0.00000E+00 7.50000E-01 8.00000E+00
 -1        31 0.00000E+00 5.00000E-01 8.00000E+00
 -1        32 0.00000E+00 2.50000E-01 8.00000E+00
 -1        44 1.00000E+00 0.00000E+00 6.00000E+00
 -1        45 1.00000E+00 0.00000E+00 6.50000E+00
 -1        46 1.00000E+00 0.00000E+00 7.00000E+00
 -1        47 1.00000E+00 0.00000E+00 7.50000E+00
 -1        48 0.00000E+00 0.00000E+00 7.50000E+00
 -1        49 0.00000E+00 0.00000E+00 7.00000E+00
 -1        50 0.00000E+00 0.00000E+00 6.50000E+00
 -1        51 0.00000E+00 0.00000E+00 6.00000E+00
 -1        74 1.00000E+00 1.00000E+00 6.00000E+00
 -1        75 1.00000E+00 1.00000E+00 6.50000E+00
 -1        76 1.00000E+00 1.00000E+00 7.00000E+00
 -1        77 1.00000E+00 1.00000E+00 7.50000E+00
 -1        89 0.00000E+00 1.00000E+00 6.00000E+00
 -1        90 0.00000E+00 1.00000E+00 6.50000E+00
 -1        91 0.00000E+00 1.00000E+00 7.00000E+00
 -1        92 0.00000E+00 1.00000E+00 7.50000E+00
 -1        98 5.00000E-01 2.50000E-01 8.00000E+00
 -1        99 2.50000E-01 5.00000E-01 8.00000E+00
 -1       100 5.00000E-01 5.00000E-01 8.00000E+00
 -1       101 7.50000E-01 5.00000E-01 8.00000E+00
 -1       102 5.00000E-01 7.50000E-01 8.00000E+00
 -1       124 2.50000E-01 0.00000E+00 6.00000E+00
 -1       125 5.00000E-01 0.00000E+00 6.00000E+00
 -1       126 7.50000E-01 0.00000E+00 6.00000E+00
 -1       127 5.00000E-01 0.00000E+00 6.50000E+00
 -1       128 2.50000E-01 0.00000E+00 7.00000E+00
 -1       129 5.00000E-01 0.00000E+00 7.00000E+00
 -1       130 7.50000E-01 0.00000E+00 7.00000E+00
 -1       131 5.00000E-01 0.00000E+00 7.50000E+00
 -1       153 1.00000E+00 2.50000E-01 6.00000E+00
 -1       154 1.00000E+00 5.00000E-01 6.00000E+00
 -1       155 1.00000E+00 7.50000E-01 6.00000E+00
 -1       156 1.00000E+00 5.00000E-01 6.50000E+00
 -1       157 1.00000E+00 2.50000E-01 7.00000E+00
 -1       158 1.00000E+00 5.00000E-01 7.00000E+00
 -1       159 1.00000E+00 7.50000E-01 7.00000E+00
 -1       160 1.00000E+00 5.00000E-01 7.50000E+00
 -1       182 7.50000E-01 1.00000E+00 6.00000E+00
 -1       183 5.00000E-01 1.00000E+00 6.00000E+00
 -1       184 2.50000E-01 1.00000E+00 6.00000E+00
 -1       185 5.00000E-01 1.00000E+00 6.50000E+00
 -1       186 7.50000E-01 1.00000E+00 7.00000E+00
 -1       187 5.00000E-01 1.00000E+00 7.00000E+00
 -1       188 2.50000E-01 1.00000E+00 7.00000E+00
 -1       189 5.00000E-01 1.00000E+00 7.50000E+00
 -1       211 0.00000E+00 7.50000E-01 6.00000E+00
 -1       212 0.00000E+00 5.00000E-01 6.00000E+00
 -1       213 0.00000E+00 2.50000E-01 6.00000E+00
 -1       214 0.00000E+00 5.00000E-01 6.50000E+00
 -1       215 0.00000E+00 7.50000E-01 7.00000E+00
 -1       216 0.00000E+00 5.00000E-01 7.00000E+00
 -1       217 0.00000E+00 2.50000E-01 7.00000E+00
 -1       218 0.00000E+00 5.00000E-01 7.50000E+00
 -1       250 5.00000E-01 2.50000E-01 6.00000E+00
 -1       251 2.50000E-01 5.00000E-01 6.00000E+00
 -1       252 5.00000E-01 5.00000E-01 6.00000E+00
 -1       253 7.50000E-01 5.00000E-01 6.00000E+00
 -1       254 5.00000E-01 7.50000E-01 6.00000E+00
 -1       255 5.00000E-01 5.00000E-01 6.50000E+00
 -1       256 5.00000E-01 2.50000E-01 7.00000E+00
 -1       257 2.50000E-01 5.00000E-01 7.00000E+00
 -1       258 5.00000E-01 5.00000E-01 7.00000E+00
 -1       259 7.50000E-01 5.00000E-01 7.00000E+00
 -1       260 5.00000E-01 7.50000E-01 7.00000E+00
 -1       261 5.00000E-01 5.00000E-01 7.50000E+00
 -3
    3C                             8                                     1
 -1        25    4    0    1
 -2        51       125       252       212        49       129       258       216       124       250
 -2       251       213        50       127       255       214       128       256       257       217
 -1        26    4    0    1
 -2       125        44       154       252       129        46       158       258       126       153
 -2       253       250       127        45       156       255       130       157       259       256
 -1        27    4    0    1
 -2       212       252       183        89       216       258       187        91       251       254
 -2       184       211       214       255       185        90       257       260       188       215
 -1        28    4    0    1
 -2       252       154        74       183       258       158        76       187       253       155
 -2       182       254       255       156        75       185       259       159       186       260
 -1        29    4    0    1
 -2        49       129       258       216         5        22       100        31       128       256
 -2       257       217        48       131       261       218        21        98        99        32
 -1        30    4    0    1
 -2       129        46       158       258        22         6        25       100       130       157
 -2       259       256       131        47       160       261        23        24       101        98
 -1        31    4    0    1
 -2       216       258       187        91        31       100        28         8       257       260
 -2       188       215       218       261       189        92        99       102        29        30
 -1        32    4    0    1
 -2       258       158        76       187       100        25         7        28       259       159
 -2       186       260       261       160        77       189       101        26        27       102
 -3
    1PSTEP                         1           1           1          
  100CL  101 5.00000E-03          81                     1    1           1
 -4  DISP        4    1
 -5  D1          1    2    1    0
 -5  D2          1    2    2    0
 -5  D3          1    2    3    0
 -5  ALL         1    2    0    0    1ALL
 -1         5 0.00000E+00 0.00000E+00 0.00000E+00
 -1         6 0.00000E+00 0.00000E+00 0.00000E+00
 -1         7 0.00000E+00 0.00000E+00 0.00000E+00
 -1         8 0.00000E+00 0.00000E+00 0.00000E+00
 -1        21 0.00000E+00 0.00000E+00 0.00000E+00
 -1        22 0.00000E+00 0.00000E+00 0.00000E+00
 -1        23 0.00000E+00 0.00000E+00 0.00000E+00
 -1        24 0.00000E+00 0.00000E+00 0.00000E+00
 -1        25 0.00000E+00 0.00000E+00 0.00000E+00
 -1        26 0.00000E+00 0.00000E+00 0.00000E+00
 -1        27 0.00000E+00 0.00000E+00 0.00000E+00
 -1        28 0.00000E+00 0.00000E+00 0.00000E+00
 -1        29 0.00000E+00 0.00000E+00 0.00000E+00
 -1        30 0.00000E+00 0.00000E+00 0.00000E+00
 -1        31 0.00000E+00 0.00000E+00 0.00000E+00
 -1        32 0.00000E+00 0.00000E+00 0.00000E+00
 -1        44-6.04563E-05-3.46519E-03 4.48419E-04
 -1        45 5.66406E-05-2.56196E-03 7.85463E-04
 -1        46-4.76972E-05-1.79524E-03 9.48903E-04
 -1        47 1.30998E-04-6.74883E-04 5.43002E-04
 -1        48-1.31012E-04-6.74890E-04 5.43025E-04
 -1        49 4.76500E-05-1.79525E-03 9.48947E-04
 -1        50-5.67483E-05-2.56197E-03 7.85525E-04
 -1        51 6.02925E-05-3.46519E-03 4.48490E-04
 -1        74 3.19483E-04-4.41283E-03-4.94235E-04
 -1        75 1.91465E-04-2.97246E-03-7.84485E-04
 -1        76-1.10644E-04-1.59688E-03-9.49791E-04
 -1        77-2.07960E-04-5.26430E-04-5.58100E-04
 -1        89-3.19645E-04-4.41283E-03-4.94165E-04
 -1        90-1.91573E-04-2.97245E-03-7.84423E-04
 -1        91 1.10597E-04-1.59687E-03-9.49746E-04
 -1        92 2.07945E-04-5.26422E-04-5.58077E-04
 -1        98 0.00000E+00 0.00000E+00 0.00000E+00
 -1        99 0.00000E+00 0.00000E+00 0.00000E+00
 -1       100 0.00000E+00 0.00000E+00 0.00000E+00
 -1       101 0.00000E+00 0.00000E+00 0.00000E+00
 -1       102 0.00000E+00 0.00000E+00 0.00000E+00
 -1       124 1.48865E-04-2.96561E-03 4.29379E-04
 -1       125-8.70516E-08-3.58819E-03 4.48681E-04
 -1       126-1.49033E-04-2.96560E-03 4.29338E-04
 -1       127-5.00437E-08-2.56192E-03 9.03195E-04
 -1       128-9.00818E-06-1.95249E-03 9.47966E-04
 -1       129-2.44604E-08-1.81439E-03 9.41321E-04
 -1       130 8.96088E-06-1.95249E-03 9.47945E-04
 -1       131-5.05516E-09-7.36383E-04 5.56308E-04
 -1       153 7.00441E-05-3.63474E-03 1.90955E-04
 -1       154-1.20394E-04-2.50239E-03-2.07097E-05
 -1       155-6.54763E-05-3.88807E-03-2.37917E-04
 -1       156-1.20400E-04-2.78877E-03-6.46810E-05
 -1       157-2.06053E-05-1.50888E-03 3.92285E-04
 -1       158 8.84965E-05-1.56683E-03-2.94194E-05
 -1       159 4.67795E-05-1.47536E-03-4.10978E-04
 -1       160 3.98211E-05-6.56484E-04 4.88309E-06
 -1       182 1.14416E-04-2.56166E-03-4.70966E-04
 -1       183-8.68660E-08-4.35472E-03-4.76089E-04
 -1       184-1.14583E-04-2.56166E-03-4.70926E-04
 -1       185-5.00795E-08-2.83269E-03-8.73566E-04
 -1       186-4.40872E-05-2.16208E-03-9.82416E-04
 -1       187-2.44775E-08-1.83148E-03-9.63423E-04
 -1       188 4.40400E-05-2.16208E-03-9.82396E-04
 -1       189-5.05509E-09-7.19854E-04-5.64403E-04
 -1       211 6.53098E-05-3.88807E-03-2.37845E-04
 -1       212 1.20230E-04-2.50239E-03-2.06357E-05
 -1       213-7.02107E-05-3.63475E-03 1.91028E-04
 -1       214 1.20287E-04-2.78877E-03-6.46203E-05
 -1       215-4.68275E-05-1.47536E-03-4.10933E-04
 -1       216-8.85447E-05-1.56683E-03-2.93740E-05
 -1       217 2.05571E-05-1.50888E-03 3.92330E-04
 -1       218-3.98395E-05-6.56484E-04 4.90711E-06
 -1       250-9.29980E-08-4.08108E-03 1.74464E-04
 -1       251 3.03687E-05-2.57176E-03-1.04037E-05
 -1       252-9.71729E-08-3.12262E-03-1.66111E-05
 -1       253-3.05472E-05-2.57176E-03-1.04522E-05
 -1       254-9.29503E-08-4.41249E-03-2.54016E-04
 -1       255-4.99293E-08-2.59877E-03-3.21645E-05
 -1       256-2.66931E-08-1.60716E-03 3.95489E-04
 -1       257-4.12165E-05-1.74905E-03-1.20198E-05
 -1       258-2.81785E-08-1.79013E-03-1.44793E-05
 -1       259 4.11650E-05-1.74905E-03-1.20395E-05
 -1       260-2.66976E-08-1.62222E-03-4.18185E-04
 -1       261-6.08440E-09-7.17010E-04-1.93418E-06
 -3
    1PSTEP                         2           2           1          
  100CL  102 1.00000E-02          81                     1    2           1
 -4  DISP        4    1
 -5  D1          1    2    1    0
 -5  D2          1    2    2    0
 -5  D3          1    2    3    0
 -5  ALL         1    2    0    0    1ALL
 -1         5 0.00000E+00 0.00000E+00 0.00000E+00
 -1         6 0.00000E+00 0.00000E+00 0.00000E+00
 -1         7 0.00000E+00 0.00000E+00 0.00000E+00
 -1         8 0.00000E+00 0.00000E+00 0.00000E+00
 -1        21 0.00000E+00 0.00000E+00 0.00000E+00
 -1        22 0.00000E+00 0.00000E+00 0.00000E+00
 -1        23 0.00000E+00 0.00000E+00 0.00000E+00
 -1        24 0.00000E+00 0.00000E+00 0.00000E+00
 -1        25 0.00000E+00 0.00000E+00 0.00000E+00
 -1        26 0.00000E+00 0.00000E+00 0.00000E+00
 -1        27 0.00000E+00 0.00000E+00 0.00000E+00
 -1        28 0.00000E+00 0.00000E+00 0.00000E+00
 -1        29 0.00000E+00 0.00000E+00 0.00000E+00
 -1        30 0.00000E+00 0.00000E+00 0.00000E+00
 -1        31 0.00000E+00 0.00000E+00 0.00000E+00
 -1        32 0.00000E+00 0.00000E+00 0.00000E+00
 -1        44-1.52449E-04 1.60726E-03-2.33803E-04
 -1        45-3.57243E-05 1.24890E-03-3.77175E-04
 -1        46 4.19316E-05 9.14140E-04-4.32198E-04
 -1        47-5.38583E-05 3.69969E-04-2.84025E-04
 -1        48 5.38403E-05 3.69942E-04-2.83987E-04
 -1        49-4.19286E-05 9.14165E-04-4.32188E-04
 -1        50 3.54602E-05 1.24895E-03-3.77110E-04
 -1        51 1.52020E-04 1.60776E-03-2.33755E-04
 -1        74 1.50721E-04 1.61083E-03 2.34083E-04
 -1        75 3.43565E-05 1.25039E-03 3.77318E-04
 -1        76-4.07508E-05 9.13100E-04 4.32226E-04
 -1        77 5.42379E-05 3.69374E-04 2.84031E-04
 -1        89-1.51077E-04 1.61047E-03 2.34146E-04
 -1        90-3.45859E-05 1.25035E-03 3.77374E-04
 -1        91 4.07707E-05 9.13121E-04 4.32240E-04
 -1        92-5.42428E-05 3.69407E-04 2.84065E-04
 -1        98 0.00000E+00 0.00000E+00 0.00000E+00
 -1        99 0.00000E+00 0.00000E+00 0.00000E+00
 -1       100 0.00000E+00 0.00000E+00 0.00000E+00
 -1       101 0.00000E+00 0.00000E+00 0.00000E+00
 -1       102 0.00000E+00 0.00000E+00 0.00000E+00
 -1       124 3.53666E-06 1.47996E-03-2.20424E-04
 -1       125-3.12049E-07 1.76743E-03-2.31143E-04
 -1       126-3.99627E-06 1.47985E-03-2.20404E-04
 -1       127-7.14280E-08 1.30102E-03-4.17247E-04
 -1       128-3.33669E-06 9.58988E-04-4.63471E-04
 -1       129-6.66541E-08 8.89622E-04-4.72339E-04
 -1       130 3.25628E-06 9.58946E-04-4.63479E-04
 -1       131 1.96660E-09 3.75530E-04-2.76028E-04
 -1       153 1.25225E-04 1.91766E-03-1.03877E-04
 -1       154-9.04812E-08 1.69539E-03 7.80130E-08
 -1       155-1.25063E-04 1.91564E-03 1.04076E-04
 -1       156 2.69005E-07 1.40696E-03 2.04025E-07
 -1       157-2.51559E-05 7.92724E-04-1.86059E-04
 -1       158-4.43156E-07 8.09527E-04 8.91252E-08
 -1       159 2.48597E-05 7.93156E-04 1.86109E-04
 -1       160-9.96477E-08 3.07975E-04-1.15780E-08
 -1       182 6.79837E-06 1.47872E-03 2.20556E-04
 -1       183-2.64067E-07 1.76970E-03 2.31383E-04
 -1       184-7.17635E-06 1.47868E-03 2.20569E-04
 -1       185-5.21870E-08 1.30173E-03 4.17172E-04
 -1       186-3.68376E-06 9.59849E-04 4.63649E-04
 -1       187-5.52333E-08 8.90418E-04 4.72417E-04
 -1       188 3.62344E-06 9.59829E-04 4.63656E-04
 -1       189 6.77648E-09 3.75609E-04 2.76049E-04
 -1       211 1.24894E-04 1.91536E-03 1.04105E-04
 -1       212-1.10068E-07 1.69538E-03 1.97049E-07
 -1       213-1.25444E-04 1.91799E-03-1.03813E-04
 -1       214-3.63011E-07 1.40699E-03 3.20069E-07
 -1       215-2.49265E-05 7.93188E-04 1.86171E-04
 -1       216 3.35682E-07 8.09524E-04 1.60062E-07
 -1       217 2.50830E-05 7.92711E-04-1.86006E-04
 -1       218 8.19233E-08 3.07982E-04 3.37480E-09
 -1       250-1.23660E-07 1.90857E-03-1.02969E-04
 -1       251 1.60186E-06 1.20863E-03 1.73587E-07
 -1       252 1.00612E-07 1.54293E-03 7.79965E-08
 -1       253-1.64227E-06 1.20864E-03 8.55285E-08
 -1       254-1.00677E-07 1.91272E-03 1.03369E-04
 -1       255-6.37572E-08 1.37551E-03 1.26190E-07
 -1       256-3.28903E-08 7.83425E-04-2.07238E-04
 -1       257-1.72489E-07 9.14140E-04 6.77818E-08
 -1       258-7.02099E-09 8.12021E-04 7.42524E-08
 -1       259 1.25399E-07 9.14142E-04 3.73322E-08
 -1       260-2.68009E-08 7.83121E-04 2.07349E-04
 -1       261-2.17204E-08 3.48347E-04 4.26842E-09
 -3
    1PSTEP                         3           3           1          
  100CL  103 1.50000E-02          81                     1    3           1
 -4  DISP        4    1
 -5  D1          1    2    1    0
 -5  D2          1    2    2    0
 -5  D3          1    2    3    0
 -5  ALL         1    2    0    0    1ALL
 -1         5 0.00000E+00 0.00000E+00 0.00000E+00
 -1         6 0.00000E+00 0.00000E+00 0.00000E+00
 -1         7 0.00000E+00 0.00000E+00 0.00000E+00
 -1         8 0.00000E+00 0.00000E+00 0.00000E+00
 -1        21 0.00000E+00 0.00000E+00 0.00000E+00
 -1        22 0.00000E+00 0.00000E+00 0.00000E+00
 -1        23 0.00000E+00 0.00000E+00 0.00000E+00
 -1        24 0.00000E+00 0.00000E+00 0.00000E+00
 -1        25 0.00000E+00 0.00000E+00 0.00000E+00
 -1        26 0.00000E+00 0.00000E+00 0.00000E+00
 -1        27 0.00000E+00 0.00000E+00 0.00000E+00
 -1        28 0.00000E+00 0.00000E+00 0.00000E+00
 -1        29 0.00000E+00 0.00000E+00 0.00000E+00
 -1        30 0.00000E+00 0.00000E+00 0.00000E+00
 -1        31 0.00000E+00 0.00000E+00 0.00000E+00
 -1        32 0.00000E+00 0.00000E+00 0.00000E+00
 -1        44 1.17905E-04-1.27599E-03 1.85233E-04
 -1        45 2.64241E-05-9.90725E-04 2.98574E-04
 -1        46-3.23802E-05-7.23136E-04 3.42053E-04
 -1        47 4.30879E-05-2.92679E-04 2.24959E-04
 -1        48-4.31110E-05-2.92692E-04 2.25001E-04
 -1        49 3.23432E-05-7.23127E-04 3.42108E-04
 -1        50-2.66405E-05-9.90692E-04 2.98617E-04
 -1        51-1.18195E-04-1.27574E-03 1.85261E-04
 -1        74-1.22922E-04-1.27254E-03-1.85249E-04
 -1        75-2.90759E-05-9.88603E-04-2.98548E-04
 -1        76 3.34279E-05-7.24008E-04-3.42046E-04
 -1        77-4.23944E-05-2.93254E-04-2.25003E-04
 -1        89 1.22701E-04-1.27269E-03-1.85228E-04
 -1        90 2.88909E-05-9.88608E-04-2.98504E-04
 -1        91-3.34457E-05-7.23992E-04-3.41992E-04
 -1        92 4.23831E-05-2.93231E-04-2.24963E-04
 -1        98 0.00000E+00 0.00000E+00 0.00000E+00
 -1        99 0.00000E+00 0.00000E+00 0.00000E+00
 -1       100 0.00000E+00 0.00000E+00 0.00000E+00
 -1       101 0.00000E+00 0.00000E+00 0.00000E+00
 -1       102 0.00000E+00 0.00000E+00 0.00000E+00
 -1       124-2.39729E-06-1.17073E-03 1.74547E-04
 -1       125-2.00300E-07-1.40109E-03 1.83145E-04
 -1       126 2.08438E-06-1.17079E-03 1.74505E-04
 -1       127-6.75009E-08-1.03058E-03 3.29943E-04
 -1       128 2.29282E-06-7.59732E-04 3.66984E-04
 -1       129-5.54257E-08-7.04342E-04 3.73850E-04
 -1       130-2.37417E-06-7.59750E-04 3.66966E-04
 -1       131-5.23567E-09-2.97482E-04 2.18608E-04
 -1       153-9.86896E-05-1.51962E-03 8.22265E-05
 -1       154-1.38578E-06-1.34280E-03-3.64090E-08
 -1       155 1.00389E-04-1.51630E-03-8.22725E-05
 -1       156-2.66874E-07-1.11388E-03 1.86883E-07
 -1       157 1.96694E-05-6.27832E-04 1.47230E-04
 -1       158 2.71141E-07-6.41602E-04 3.73191E-08
 -1       159-2.01364E-05-6.28616E-04-1.47323E-04
 -1       160 5.03773E-08-2.44095E-04-2.02590E-10
 -1       182-6.20609E-06-1.17165E-03-1.74541E-04
 -1       183-1.68615E-07-1.40067E-03-1.83109E-04
 -1       184 5.95925E-06-1.17166E-03-1.74474E-04
 -1       185-4.70682E-08-1.03126E-03-3.30415E-04
 -1       186 3.14880E-06-7.59579E-04-3.66957E-04
 -1       187-4.57607E-08-7.04274E-04-3.74062E-04
 -1       188-3.21131E-06-7.59585E-04-3.66945E-04
 -1       189 6.93281E-11-2.97303E-04-2.18613E-04
 -1       211-1.00533E-04-1.51640E-03-8.22439E-05
 -1       212 1.23087E-06-1.34276E-03-2.03345E-08
 -1       213 9.85111E-05-1.51945E-03 8.22990E-05
 -1       214 1.35464E-07-1.11385E-03 2.61181E-07
 -1       215 2.00782E-05-6.28595E-04-1.47264E-04
 -1       216-3.51015E-07-6.41594E-04 1.05618E-07
 -1       217-1.97376E-05-6.27832E-04 1.47284E-04
 -1       218-7.40543E-08-2.44089E-04 2.96614E-08
 -1       250-1.23321E-07-1.51063E-03 8.17007E-05
 -1       251-9.01640E-07-9.57541E-04-1.37055E-08
 -1       252-2.66741E-08-1.22097E-03 2.76864E-08
 -1       253 7.80457E-07-9.57559E-04-6.31817E-08
 -1       254-1.09345E-07-1.51312E-03-8.16365E-05
 -1       255-6.02122E-08-1.08912E-03-2.35294E-08
 -1       256-4.05122E-08-6.20670E-04 1.64163E-04
 -1       257 1.40454E-07-7.24032E-04 6.74472E-09
 -1       258-2.90677E-08-6.43184E-04-2.52817E-09
 -1       259-2.03454E-07-7.24036E-04-1.83858E-08
 -1       260-3.54212E-08-6.20049E-04-1.64144E-04
 -1       261-1.46429E-08-2.76037E-04-1.08776E-08
 -3
    1PSTEP                         4           4           1          
  100CL  104 2.00000E-02          81                     1    4           1
 -4  DISP        4    1
 -5  D1          1    2    1    0
 -5  D2          1    2    2    0
 -5  D3          1    2    3    0
 -5  ALL         1    2    0    0    1ALL
 -1         5 0.00000E+00 0.00000E+00 0.00000E+00
 -1         6 0.00000E+00 0.00000E+00 0.00000E+00
 -1         7 0.00000E+00 0.00000E+00 0.00000E+00
 -1         8 0.00000E+00 0.00000E+00 0.00000E+00
 -1        21 0.00000E+00 0.00000E+00 0.00000E+00
 -1        22 0.00000E+00 0.00000E+00 0.00000E+00
 -1        23 0.00000E+00 0.00000E+00 0.00000E+00
 -1        24 0.00000E+00 0.00000E+00 0.00000E+00
 -1        25 0.00000E+00 0.00000E+00 0.00000E+00
 -1        26 0.00000E+00 0.00000E+00 0.00000E+00
 -1        27 0.00000E+00 0.00000E+00 0.00000E+00
 -1        28 0.00000E+00 0.00000E+00 0.00000E+00
 -1        29 0.00000E+00 0.00000E+00 0.00000E+00
 -1        30 0.00000E+00 0.00000E+00 0.00000E+00
 -1        31 0.00000E+00 0.00000E+00 0.00000E+00
 -1        32 0.00000E+00 0.00000E+00 0.00000E+00
 -1        44-9.48188E-05 9.88077E-04-1.43968E-04
 -1        45-2.21442E-05 7.67802E-04-2.31978E-04
 -1        46 2.57943E-05 5.62207E-04-2.65617E-04
 -1        47-3.30376E-05 2.27698E-04-1.74745E-04
 -1        48 3.30318E-05 2.27680E-04-1.74717E-04
 -1        49-2.57923E-05 5.62201E-04-2.65593E-04
 -1        50 2.19999E-05 7.67826E-04-2.31958E-04
 -1        51 9.45409E-05 9.88355E-04-1.43941E-04
 -1        74 9.31982E-05 9.89837E-04 1.43942E-04
 -1        75 2.11918E-05 7.68649E-04 2.31962E-04
 -1        76-2.54561E-05 5.61857E-04 2.65590E-04
 -1        77 3.32527E-05 2.27450E-04 1.74716E-04
 -1        89-9.34311E-05 9.89611E-04 1.43969E-04
 -1        90-2.13597E-05 7.68612E-04 2.31981E-04
 -1        91 2.54645E-05 5.61867E-04 2.65625E-04
 -1        92-3.32602E-05 2.27465E-04 1.74750E-04
 -1        98 0.00000E+00 0.00000E+00 0.00000E+00
 -1        99 0.00000E+00 0.00000E+00 0.00000E+00
 -1       100 0.00000E+00 0.00000E+00 0.00000E+00
 -1       101 0.00000E+00 0.00000E+00 0.00000E+00
 -1       102 0.00000E+00 0.00000E+00 0.00000E+00
 -1       124 3.78286E-06 9.10143E-04-1.35630E-04
 -1       125-1.69446E-07 1.08729E-03-1.42319E-04
 -1       126-4.04849E-06 9.10085E-04-1.35617E-04
 -1       127-4.20217E-08 8.00601E-04-2.56542E-04
 -1       128-2.30833E-06 5.89705E-04-2.84994E-04
 -1       129-3.33456E-08 5.46891E-04-2.90500E-04
 -1       130 2.26585E-06 5.89691E-04-2.85008E-04
 -1       131 2.80228E-09 2.30891E-04-1.69743E-04
 -1       153 7.78177E-05 1.17871E-03-6.39629E-05
 -1       154-2.75024E-07 1.04413E-03 1.84480E-08
 -1       155-7.74678E-05 1.18022E-03 6.39231E-05
 -1       156 6.00984E-09 8.65053E-04 5.82247E-08
 -1       157-1.56311E-05 4.87990E-04-1.14373E-04
 -1       158 3.23168E-09 4.98214E-04 5.49806E-09
 -1       159 1.54922E-05 4.87676E-04 1.14333E-04
 -1       160-1.79684E-08 1.89415E-04-5.83878E-09
 -1       182 2.53281E-06 9.09623E-04 1.35630E-04
 -1       183-1.81532E-07 1.08793E-03 1.42347E-04
 -1       184-2.79007E-06 9.09601E-04 1.35677E-04
 -1       185-3.20175E-08 8.00593E-04 2.56379E-04
 -1       186-2.02289E-06 5.89825E-04 2.85008E-04
 -1       187-4.37459E-08 5.46776E-04 2.90443E-04
 -1       188 1.97351E-06 5.89811E-04 2.85016E-04
 -1       189 2.52171E-09 2.30894E-04 1.69740E-04
 -1       211 7.73567E-05 1.18005E-03 6.39809E-05
 -1       212 1.54943E-07 1.04413E-03 1.47166E-08
 -1       213-7.79581E-05 1.17890E-03-6.39071E-05
 -1       214-6.87035E-08 8.65054E-04 1.18579E-07
 -1       215-1.55344E-05 4.87691E-04 1.14368E-04
 -1       216-6.78266E-08 4.98206E-04 5.52769E-08
 -1       217 1.55870E-05 4.87970E-04-1.14345E-04
 -1       218 5.96147E-09 1.89414E-04 7.45119E-09
 -1       250-7.04298E-08 1.17407E-03-6.34912E-05
 -1       251-4.26153E-07 7.43452E-04-1.35281E-08
 -1       252 5.03883E-08 9.48378E-04 1.63855E-08
 -1       253 3.93087E-07 7.43455E-04-1.30693E-08
 -1       254-7.96499E-08 1.17333E-03 6.35229E-05
 -1       255-4.28803E-08 8.46091E-04 8.51193E-09
 -1       256-1.72706E-08 4.81507E-04-1.27519E-04
 -1       257 8.05630E-08 5.62287E-04 1.31705E-08
 -1       258-5.30310E-09 4.99106E-04-2.04858E-09
 -1       259-1.10101E-07 5.62291E-04-1.22969E-08
 -1       260-2.15846E-08 4.81682E-04 1.27529E-04
 -1       261-1.30992E-08 2.14236E-04-1.39995E-09
 -3
    1PSTEP                         5           5           1          
  100CL  105 2.50000E-02          81                     1    5           1
 -4  DISP        4    1
 -5  D1          1    2    1    0
 -5  D2          1    2    2    0
 -5  D3          1    2    3    0
 -5  ALL         1    2    0    0    1ALL
 -1         5 0.00000E+00 0.00000E+00 0.00000E+00
 -1         6 0.00000E+00 0.00000E+00 0.00000E+00
 -1         7 0.00000E+00 0.00000E+00 0.00000E+00
 -1         8 0.00000E+00 0.00000E+00 0.00000E+00
 -1        21 0.00000E+00 0.00000E+00 0.00000E+00
 -1        22 0.00000E+00 0.00000E+00 0.00000E+00
 -1        23 0.00000E+00 0.00000E+00 0.00000E+00
 -1        24 0.00000E+00 0.00000E+00 0.00000E+00
 -1        25 0.00000E+00 0.00000E+00 0.00000E+00
 -1        26 0.00000E+00 0.00000E+00 0.00000E+00
 -1        27 0.00000E+00 0.00000E+00 0.00000E+00
 -1        28 0.00000E+00 0.00000E+00 0.00000E+00
 -1        29 0.00000E+00 0.00000E+00 0.00000E+00
 -1        30 0.00000E+00 0.00000E+00 0.00000E+00
 -1        31 0.00000E+00 0.00000E+00 0.00000E+00
 -1        32 0.00000E+00 0.00000E+00 0.00000E+00
 -1        44 7.01792E-05-7.46720E-04 1.08612E-04
 -1        45 1.59017E-05-5.80273E-04 1.74951E-04
 -1        46-1.91682E-05-4.23954E-04 2.00419E-04
 -1        47 2.51627E-05-1.71648E-04 1.31875E-04
 -1        48-2.51569E-05-1.71636E-04 1.31870E-04
 -1        49 1.91477E-05-4.23966E-04 2.00435E-04
 -1        50-1.58204E-05-5.80283E-04 1.74908E-04
 -1        51-7.01400E-05-7.46812E-04 1.08611E-04
 -1        74-7.26704E-05-7.43885E-04-1.08567E-04
 -1        75-1.73190E-05-5.78683E-04-1.74966E-04
 -1        76 1.97723E-05-4.24658E-04-2.00431E-04
 -1        77-2.47391E-05-1.72092E-04-1.31857E-04
 -1        89 7.28349E-05-7.43739E-04-1.08599E-04
 -1        90 1.73661E-05-5.78676E-04-1.74999E-04
 -1        91-1.97632E-05-4.24649E-04-2.00423E-04
 -1        92 2.47406E-05-1.72101E-04-1.31857E-04
 -1        98 0.00000E+00 0.00000E+00 0.00000E+00
 -1        99 0.00000E+00 0.00000E+00 0.00000E+00
 -1       100 0.00000E+00 0.00000E+00 0.00000E+00
 -1       101 0.00000E+00 0.00000E+00 0.00000E+00
 -1       102 0.00000E+00 0.00000E+00 0.00000E+00
 -1       124-1.50653E-06-6.86411E-04 1.02350E-04
 -1       125 1.02729E-07-8.20816E-04 1.07349E-04
 -1       126 1.61836E-06-6.86404E-04 1.02344E-04
 -1       127 1.11933E-08-6.03853E-04 1.93411E-04
 -1       128 1.41321E-06-4.45163E-04 2.15082E-04
 -1       129 2.30619E-08-4.12870E-04 2.19165E-04
 -1       130-1.39811E-06-4.45149E-04 2.15074E-04
 -1       131-2.80194E-09-1.74362E-04 1.28112E-04
 -1       153-5.82697E-05-8.90568E-04 4.82559E-05
 -1       154-2.42647E-07-7.88216E-04 6.19118E-08
 -1       155 5.91897E-05-8.88256E-04-4.82083E-05
 -1       156 1.10618E-07-6.53092E-04 2.12882E-07
 -1       157 1.16869E-05-3.67958E-04 8.63165E-05
 -1       158 7.02782E-08-3.75820E-04 7.31551E-08
 -1       159-1.18323E-05-3.68494E-04-8.63131E-05
 -1       160-3.54384E-08-1.42902E-04-1.61199E-09
 -1       182-3.81703E-06-6.87468E-04-1.02276E-04
 -1       183 6.64384E-08-8.19458E-04-1.07297E-04
 -1       184 3.95137E-06-6.87415E-04-1.02234E-04
 -1       185 3.10958E-08-6.03833E-04-1.93742E-04
 -1       186 1.93565E-06-4.44914E-04-2.15054E-04
 -1       187 3.97550E-09-4.13107E-04-2.19265E-04
 -1       188-1.92446E-06-4.44905E-04-2.15061E-04
 -1       189-6.06081E-10-1.74376E-04-1.28109E-04
 -1       211-5.90651E-05-8.88146E-04-4.82576E-05
 -1       212 3.74883E-07-7.88184E-04-9.24322E-08
 -1       213 5.83271E-05-8.90623E-04 4.82685E-05
 -1       214-9.89876E-08-6.53085E-04 1.59000E-07
 -1       215 1.18637E-05-3.68498E-04-8.63300E-05
 -1       216-2.71254E-08-3.75822E-04 5.83959E-08
 -1       217-1.16696E-05-3.67957E-04 8.62936E-05
 -1       218 3.67326E-08-1.42903E-04 5.48317E-10
 -1       250 3.79162E-08-8.85445E-04 4.79013E-05
 -1       251-7.74077E-07-5.60739E-04-1.09478E-07
 -1       252-3.74907E-08-7.16082E-04-1.90634E-08
 -1       253 8.12041E-07-5.60754E-04-4.55326E-08
 -1       254 1.36195E-08-8.86745E-04-4.78264E-05
 -1       255 2.31776E-08-6.38565E-04 1.19619E-08
 -1       256 7.98941E-09-3.63669E-04 9.62222E-05
 -1       257 1.89319E-07-4.24441E-04 3.26912E-09
 -1       258-4.83391E-09-3.76718E-04 5.41756E-09
 -1       259-1.76482E-07-4.24441E-04 1.40592E-08
 -1       260-4.96257E-10-3.63354E-04-9.62077E-05
 -1       261 6.06956E-09-1.61687E-04-1.50059E-09
 -3
    1PSTEP                         6           6           1          
  100CL  106 3.00000E-02          81                     1    6           1
 -4  DISP        4    1
 -5  D1          1    2    1    0
 -5  D2          1    2    2    0
 -5  D3          1    2    3    0
 -5  ALL         1    2    0    0    1ALL
 -1         5 0.00000E+00 0.00000E+00 0.00000E+00
 -1         6 0.00000E+00 0.00000E+00 0.00000E+00
 -1         7 0.00000E+00 0.00000E+00 0.00000E+00
 -1         8 0.00000E+00 0.00000E+00 0.00000E+00
 -1        21 0.00000E+00 0.00000E+00 0.00000E+00
 -1        22 0.00000E+00 0.00000E+00 0.00000E+00
 -1        23 0.00000E+00 0.00000E+00 0.00000E+00
 -1        24 0.00000E+00 0.00000E+00 0.00000E+00
 -1        25 0.00000E+00 0.00000E+00 0.00000E+00
 -1        26 0.00000E+00 0.00000E+00 0.00000E+00
 -1        27 0.00000E+00 0.00000E+00 0.00000E+00
 -1        28 0.00000E+00 0.00000E+00 0.00000E+00
 -1        29 0.00000E+00 0.00000E+00 0.00000E+00
 -1        30 0.00000E+00 0.00000E+00 0.00000E+00
 -1        31 0.00000E+00 0.00000E+00 0.00000E+00
 -1        32 0.00000E+00 0.00000E+00 0.00000E+00
 -1        44-5.18176E-05 5.41035E-04-7.87843E-05
 -1        45-1.20193E-05 4.20310E-04-1.26965E-04
 -1        46 1.41363E-05 3.07771E-04-1.45366E-04
 -1        47-1.80915E-05 1.24627E-04-9.56502E-05