    1C
    1UUSER                                                              
    1UDATE              17.july.2018                                    
    1UTIME              01:32:31                                        
    1UHOST                                                              
    1UPGM               CalculiX                                        
    1UVERSION           Version 2.13                             
    1UCOMPILETIME       jue jun 14 00:40:39 CEST 2018                    
    1UDIR                                                               
    1UDBN                                                               
    1UMAT    1EL                                                        
    2C                            81                                     1
 -1         5 0.00000E+00 0.00000E+00 8.00000E+00
 -1         6 1.00000E+00 0.00000E+00 8.00000E+00
 -1         7 1.00000E+00 1.00000E+00 8.00000E+00
 -1         8 0.00000E+00 1.00000E+00 8.00000E+00
 -1        21 2.50000E-01 0.00000E+00 8.00000E+00
 -1        22 5.00000E-01 0.00000E+00 8.00000E+00
 -1        23 7.50000E-01 0.00000E+00 8.00000E+00
 -1        24 1.00000E+00 2.50000E-01 8.00000E+00
 -1        25 1.00000E+00 5.00000E-01 8.00000E+00
 -1        26 1.00000E+00 7.50000E-01 8.00000E+00
 -1        27 7.50000E-01 1.00000E+00 8.00000E+00
 -1        28 5.00000E-01 1.00000E+00 8.00000E+00
 -1        29 2.50000E-01 1.00000E+00 8.00000E+00
 -1        30 0.00000E+00 7.50000E-01 8.00000E+00
 -1        31 0.00000E+00 5.00000E-01 8.00000E+00
 -1        32 0.00000E+00 2.50000E-01 8.00000E+00
 -1        44 1.00000E+00 0.00000E+00 6.00000E+00
 -1        45 1.00000E+00 0.00000E+00 6.50000E+00
 -1        46 1.00000E+00 0.00000E+00 7.00000E+00
 -1        47 1.00000E+00 0.00000E+00 7.50000E+00
 -1        48 0.00000E+00 0.00000E+00 7.50000E+00
 -1        49 0.00000E+00 0.00000E+00 7.00000E+00
 -1        50 0.00000E+00 0.00000E+00 6.50000E+00
 -1        51 0.00000E+00 0.00000E+00 6.00000E+00
 -1        74 1.00000E+00 1.00000E+00 6.00000E+00
 -1        75 1.00000E+00 1.00000E+00 6.50000E+00
 -1        76 1.00000E+00 1.00000E+00 7.00000E+00
 -1        77 1.00000E+00 1.00000E+00 7.50000E+00
 -1        89 0.00000E+00 1.00000E+00 6.00000E+00
 -1        90 0.00000E+00 1.00000E+00 6.50000E+00
 -1        91 0.00000E+00 1.00000E+00 7.00000E+00
 -1        92 0.00000E+00 1.00000E+00 7.50000E+00
 -1        98 5.00000E-01 2.50000E-01 8.00000E+00
 -1        99 2.50000E-01 5.00000E-01 8.00000E+00
 -1       100 5.00000E-01 5.00000E-01 8.00000E+00
 -1       101 7.50000E-01 5.00000E-01 8.00000E+00
 -1       102 5.00000E-01 7.50000E-01 8.00000E+00
 -1       124 2.50000E-01 0.00000E+00 6.00000E+00
 -1       125 5.00000E-01 0.00000E+00 6.00000E+00
 -1       126 7.50000E-01 0.00000E+00 6.00000E+00
 -1       127 5.00000E-01 0.00000E+00 6.50000E+00
 -1       128 2.50000E-01 0.00000E+00 7.00000E+00
 -1       129 5.00000E-01 0.00000E+00 7.00000E+00
 -1       130 7.50000E-01 0.00000E+00 7.00000E+00
 -1       131 5.00000E-01 0.00000E+00 7.50000E+00
 -1       153 1.00000E+00 2.50000E-01 6.00000E+00
 -1       154 1.00000E+00 5.00000E-01 6.00000E+00
 -1       155 1.00000E+00 7.50000E-01 6.00000E+00
 -1       156 1.00000E+00 5.00000E-01 6.50000E+00
 -1       157 1.00000E+00 2.50000E-01 7.00000E+00
 -1       158 1.00000E+00 5.00000E-01 7.00000E+00
 -1       159 1.00000E+00 7.50000E-01 7.00000E+00
 -1       160 1.00000E+00 5.00000E-01 7.50000E+00
 -1       182 7.50000E-01 1.00000E+00 6.00000E+00
 -1       183 5.00000E-01 1.00000E+00 6.00000E+00
 -1       184 2.50000E-01 1.00000E+00 6.00000E+00
 -1       185 5.00000E-01 1.00000E+00 6.50000E+00
 -1       186 7.50000E-01 1.00000E+00 7.00000E+00
 -1       187 5.00000E-01 1.00000E+00 7.00000E+00
 -1       188 2.50000E-01 1.00000E+00 7.00000E+00
 -1       189 5.00000E-01 1.00000E+00 7.50000E+00
 -1       211 0.00000E+00 7.50000E-01 6.00000E+00
 -1       212 0.00000E+00 5.00000E-01 6.00000E+00
 -1       213 0.00000E+00 2.50000E-01 6.00000E+00
 -1       214 0.00000E+00 5.00000E-01 6.50000E+00
 -1       215 0.00000E+00 7.50000E-01 7.00000E+00
 -1       216 0.00000E+00 5.00000E-01 7.00000E+00
 -1       217 0.00000E+00 2.50000E-01 7.00000E+00
 -1       218 0.00000E+00 5.00000E-01 7.50000E+00
 -1       250 5.00000E-01 2.50000E-01 6.00000E+00
 -1       251 2.50000E-01 5.00000E-01 6.00000E+00
 -1       252 5.00000E-01 5.00000E-01 6.00000E+00
 -1       253 7.50000E-01 5.00000E-01 6.00000E+00
 -1       254 5.00000E-01 7.50000E-01 6.00000E+00
 -1       255 5.00000E-01 5.00000E-01 6.50000E+00
 -1       256 5.00000E-01 2.50000E-01 7.00000E+00
 -1       257 2.50000E-01 5.00000E-01 7.00000E+00
 -1       258 5.00000E-01 5.00000E-01 7.00000E+00
 -1       259 7.50000E-01 5.00000E-01 7.00000E+00
 -1       260 5.00000E-01 7.50000E-01 7.00000E+00
 -1       261 5.00000E-01 5.00000E-01 7.50000E+00
 -3
    3C                             8                                     1
 -1        25    4    0    1
 -2        51       125       252       212        49       129       258       216       124       250
 -2       251       213        50       127       255       214       128       256       257       217
 -1        26    4    0    1
 -2       125        44       154       252       129        46       158       258       126       153
 -2       253       250       127        45       156       255       130       157       259       256
 -1        27    4    0    1
 -2       212       252       183        89       216       258       187        91       251       254
 -2       184       211       214       255       185        90       257       260       188       215
 -1        28    4    0    1
 -2       252       154        74       183       258       158        76       187       253       155
 -2       182       254       255       156        75       185       259       159       186       260
 -1        29    4    0    1
 -2        49       129       258       216         5        22       100        31       128       256
 -2       257       217        48       131       261       218        21        98        99        32
 -1        30    4    0    1
 -2       129        46       158       258        22         6        25       100       130       157
 -2       259       256       131        47       160       261        23        24       101        98
 -1        31    4    0    1
 -2       216       258       187        91        31       100        28         8       257       260
 -2       188       215       218       261       189        92        99       102        29        30
 -1        32    4    0    1
 -2       258       158        76       187       100        25         7        28       259       159
 -2       186       260       261       160        77       189       101        26        27       102
 -3
    1PSTEP                         1           1           1          
  100CL  101 5.00000E-03          81                     1    1           1
 -4  DISP        4    1
 -5  D1          1    2    1    0
 -5  D2          1    2    2    0
 -5  D3          1    2    3    0
 -5  ALL         1    2    0    0    1ALL
 -1         5 0.00000E+00 0.00000E+00 0.00000E+00
 -1         6 0.00000E+00 0.00000E+00 0.00000E+00
 -1         7 0.00000E+00 0.00000E+00 0.00000E+00
 -1         8 0.00000E+00 0.00000E+00 0.00000E+00
 -1        21 0.00000E+00 0.00000E+00 0.00000E+00
 -1        22 0.00000E+00 0.00000E+00 0.00000E+00
 -1        23 0.00000E+00 0.00000E+00 0.00000E+00
 -1        24 0.00000E+00 0.00000E+00 0.00000E+00
 -1        25 0.00000E+00 0.00000E+00 0.00000E+00
 -1        26 0.00000E+00 0.00000E+00 0.00000E+00
 -1        27 0.00000E+00 0.00000E+00 0.00000E+00
 -1        28 0.00000E+00 0.00000E+00 0.00000E+00
 -1        29 0.00000E+00 0.00000E+00 0.00000E+00
 -1        30 0.00000E+00 0.00000E+00 0.00000E+00
 -1        31 0.00000E+00 0.00000E+00 0.00000E+00
 -1        32 0.00000E+00 0.00000E+00 0.00000E+00
 -1        44-6.03811E-05-3.46528E-03 4.48073E-04
 -1        45 5.66802E-05-2.56195E-03 7.85437E-04
 -1        46-4.77763E-05-1.79537E-03 9.48989E-04
 -1        47 1.30980E-04-6.74851E-04 5.42966E-04
 -1        48-1.31008E-04-6.74872E-04 5.43021E-04
 -1        49 4.76364E-05-1.79540E-03 9.49111E-04
 -1        50-5.69509E-05-2.56195E-03 7.85660E-04
 -1        51 5.97557E-05-3.46540E-03 4.48466E-04
 -1        74 3.19137E-04-4.41348E-03-4.94521E-04
 -1        75 1.91390E-04-2.97263E-03-7.84720E-04
 -1        76-1.10707E-04-1.59689E-03-9.49769E-04
 -1        77-2.08000E-04-5.26359E-04-5.58054E-04
 -1        89-3.19744E-04-4.41337E-03-4.94159E-04
 -1        90-1.91662E-04-2.97263E-03-7.84507E-04
 -1        91 1.10569E-04-1.59686E-03-9.49647E-04
 -1        92 2.07971E-04-5.26337E-04-5.57999E-04
 -1        98 0.00000E+00 0.00000E+00 0.00000E+00
 -1        99 0.00000E+00 0.00000E+00 0.00000E+00
 -1       100 0.00000E+00 0.00000E+00 0.00000E+00
 -1       101 0.00000E+00 0.00000E+00 0.00000E+00
 -1       102 0.00000E+00 0.00000E+00 0.00000E+00
 -1       124 1.48468E-04-2.96561E-03 4.29283E-04
 -1       125-2.47540E-07-3.58837E-03 4.48715E-04
 -1       126-1.49016E-04-2.96556E-03 4.29135E-04
 -1       127-1.53823E-07-2.56212E-03 9.03434E-04
 -1       128-9.02218E-06-1.95260E-03 9.48033E-04
 -1       129-4.71804E-08-1.81433E-03 9.41264E-04
 -1       130 8.90674E-06-1.95258E-03 9.47961E-04
 -1       131-9.29316E-09-7.36425E-04 5.56324E-04
 -1       153 6.98590E-05-3.63467E-03 1.90689E-04
 -1       154-1.20793E-04-2.50167E-03-2.09133E-05
 -1       155-6.56828E-05-3.88796E-03-2.37891E-04
 -1       156-1.20578E-04-2.78900E-03-6.46383E-05
 -1       157-2.06737E-05-1.50880E-03 3.92237E-04
 -1       158 8.84455E-05-1.56668E-03-2.95898E-05
 -1       159 4.66903E-05-1.47532E-03-4.11115E-04
 -1       160 3.98708E-05-6.56535E-04 4.84442E-06
 -1       182 1.13943E-04-2.56131E-03-4.70850E-04
 -1       183-2.41760E-07-4.35510E-03-4.76266E-04
 -1       184-1.14477E-04-2.56127E-03-4.70718E-04
 -1       185-1.55255E-07-2.83304E-03-8.73415E-04
 -1       186-4.40818E-05-2.16228E-03-9.82574E-04
 -1       187-4.65711E-08-1.83142E-03-9.63574E-04
 -1       188 4.39679E-05-2.16226E-03-9.82503E-04
 -1       189-9.30015E-09-7.19803E-04-5.64487E-04
 -1       211 6.49843E-05-3.88792E-03-2.37549E-04
 -1       212 1.20031E-04-2.50167E-03-2.05157E-05
 -1       213-7.05687E-05-3.63473E-03 1.91046E-04
 -1       214 1.20329E-04-2.78900E-03-6.44098E-05
 -1       215-4.68490E-05-1.47530E-03-4.10986E-04
 -1       216-8.86237E-05-1.56668E-03-2.94698E-05
 -1       217 2.05145E-05-1.50882E-03 3.92368E-04
 -1       218-3.99059E-05-6.56535E-04 4.88402E-06
 -1       250-2.43504E-07-4.08187E-03 1.74943E-04
 -1       251 3.00525E-05-2.57169E-03-1.01698E-05
 -1       252-2.34966E-07-3.12327E-03-1.49121E-05
 -1       253-3.06532E-05-2.57168E-03-1.02391E-05
 -1       254-2.39277E-07-4.41318E-03-2.54098E-04
 -1       255-1.73978E-07-2.59870E-03-3.19192E-05
 -1       256-4.34725E-08-1.60719E-03 3.95481E-04
 -1       257-4.12330E-05-1.74912E-03-1.19538E-05
 -1       258-3.77454E-08-1.79038E-03-1.46046E-05
 -1       259 4.11081E-05-1.74912E-03-1.20421E-05
 -1       260-4.35453E-08-1.62227E-03-4.18100E-04
 -1       261-1.70007E-08-7.17006E-04-2.00959E-06
 -3
    1PSTEP                         2           2           1          
  100CL  102 1.00000E-02          81                     1    2           1
 -4  DISP        4    1
 -5  D1          1    2    1    0
 -5  D2          1    2    2    0
 -5  D3          1    2    3    0
 -5  ALL         1    2    0    0    1ALL
 -1         5 0.00000E+00 0.00000E+00 0.00000E+00
 -1         6 0.00000E+00 0.00000E+00 0.00000E+00
 -1         7 0.00000E+00 0.00000E+00 0.00000E+00
 -1         8 0.00000E+00 0.00000E+00 0.00000E+00
 -1        21 0.00000E+00 0.00000E+00 0.00000E+00
 -1        22 0.00000E+00 0.00000E+00 0.00000E+00
 -1        23 0.00000E+00 0.00000E+00 0.00000E+00
 -1        24 0.00000E+00 0.00000E+00 0.00000E+00
 -1        25 0.00000E+00 0.00000E+00 0.00000E+00
 -1        26 0.00000E+00 0.00000E+00 0.00000E+00
 -1        27 0.00000E+00 0.00000E+00 0.00000E+00
 -1        28 0.00000E+00 0.00000E+00 0.00000E+00
 -1        29 0.00000E+00 0.00000E+00 0.00000E+00
 -1        30 0.00000E+00 0.00000E+00 0.00000E+00
 -1        31 0.00000E+00 0.00000E+00 0.00000E+00
 -1        32 0.00000E+00 0.00000E+00 0.00000E+00
 -1        44-1.50379E-04 1.60941E-03-2.33754E-04
 -1        45-3.49650E-05 1.24947E-03-3.77222E-04
 -1        46 4.13259E-05 9.13502E-04-4.32199E-04
 -1        47-5.40519E-05 3.69676E-04-2.84019E-04
 -1        48 5.40612E-05 3.69619E-04-2.83967E-04
 -1        49-4.11567E-05 9.13483E-04-4.32252E-04
 -1        50 3.45682E-05 1.24964E-03-3.77189E-04
 -1        51 1.49697E-04 1.61039E-03-2.33656E-04
 -1        74 1.52897E-04 1.61000E-03 2.34155E-04
 -1        75 3.59859E-05 1.24867E-03 3.77324E-04
 -1        76-4.21495E-05 9.14576E-04 4.32321E-04
 -1        77 5.36589E-05 3.69756E-04 2.84041E-04
 -1        89-1.53586E-04 1.60911E-03 2.34278E-04
 -1        90-3.63288E-05 1.24847E-03 3.77336E-04
 -1        91 4.22613E-05 9.14603E-04 4.32250E-04
 -1        92-5.36366E-05 3.69816E-04 2.84069E-04
 -1        98 0.00000E+00 0.00000E+00 0.00000E+00
 -1        99 0.00000E+00 0.00000E+00 0.00000E+00
 -1       100 0.00000E+00 0.00000E+00 0.00000E+00
 -1       101 0.00000E+00 0.00000E+00 0.00000E+00
 -1       102 0.00000E+00 0.00000E+00 0.00000E+00
 -1       124 4.27087E-06 1.47835E-03-2.20364E-04
 -1       125-6.06288E-07 1.76939E-03-2.31420E-04
 -1       126-5.04266E-06 1.47823E-03-2.20325E-04
 -1       127-2.98256E-08 1.30170E-03-4.16910E-04
 -1       128-3.46317E-06 9.59328E-04-4.63388E-04
 -1       129-1.04981E-07 8.89003E-04-4.72034E-04
 -1       130 3.40082E-06 9.59257E-04-4.63372E-04
 -1       131 2.93788E-08 3.75245E-04-2.75958E-04
 -1       153 1.23857E-04 1.91542E-03-1.03874E-04
 -1       154 9.31350E-07 1.69033E-03-1.18598E-08
 -1       155-1.25491E-04 1.91835E-03 1.04097E-04
 -1       156 3.43211E-07 1.40485E-03-8.44126E-08
 -1       157-2.46644E-05 7.93207E-04-1.85962E-04
 -1       158-3.51779E-07 8.10800E-04-2.43170E-08
 -1       159 2.47725E-05 7.93142E-04 1.86059E-04
 -1       160-1.33139E-07 3.08667E-04-3.38496E-08
 -1       182 3.48142E-06 1.47846E-03 2.20634E-04
 -1       183-4.62753E-07 1.77034E-03 2.31355E-04
 -1       184-4.11226E-06 1.47836E-03 2.20614E-04
 -1       185-4.99216E-08 1.30300E-03 4.17311E-04
 -1       186-3.36198E-06 9.59907E-04 4.63542E-04
 -1       187-7.74648E-08 8.89093E-04 4.72367E-04
 -1       188 3.29687E-06 9.59846E-04 4.63512E-04
 -1       189 2.56797E-08 3.75276E-04 2.76061E-04
 -1       211 1.25237E-04 1.91765E-03 1.04064E-04
 -1       212-1.28154E-06 1.69032E-03 1.86436E-07
 -1       213-1.24115E-04 1.91616E-03-1.03730E-04
 -1       214-2.57937E-07 1.40488E-03 9.11780E-08
 -1       215-2.48719E-05 7.93210E-04 1.86121E-04
 -1       216 1.46521E-07 8.10788E-04 5.70132E-08
 -1       217 2.45924E-05 7.93128E-04-1.85930E-04
 -1       218 1.42784E-07 3.08668E-04-7.34167E-08
 -1       250-9.45487E-08 1.90778E-03-1.03149E-04
 -1       251-1.11893E-06 1.21043E-03 9.10278E-08
 -1       252 5.25297E-07 1.53868E-03 1.01590E-07
 -1       253 1.37028E-06 1.21044E-03 6.32829E-08
 -1       254-1.28527E-08 1.90648E-03 1.03432E-04
 -1       255-7.48957E-08 1.37412E-03 1.44261E-07
 -1       256 2.07792E-09 7.83415E-04-2.07237E-04
 -1       257 3.13565E-07 9.13498E-04 9.42198E-08
 -1       258 8.27296E-08 8.12697E-04 6.40099E-08
 -1       259-3.00194E-07 9.13503E-04 3.30717E-08
 -1       260 1.38133E-08 7.83849E-04 2.07325E-04
 -1       261-4.33817E-08 3.48710E-04 8.38861E-09
 -3
    1PSTEP                         3           3           1          
  100CL  103 1.50000E-02          81                     1    3           1
 -4  DISP        4    1
 -5  D1          1    2    1    0
 -5  D2          1    2    2    0
 -5  D3          1    2    3    0
 -5  ALL         1    2    0    0    1ALL
 -1         5 0.00000E+00 0.00000E+00 0.00000E+00
 -1         6 0.00000E+00 0.00000E+00 0.00000E+00
 -1         7 0.00000E+00 0.00000E+00 0.00000E+00
 -1         8 0.00000E+00 0.00000E+00 0.00000E+00
 -1        21 0.00000E+00 0.00000E+00 0.00000E+00
 -1        22 0.00000E+00 0.00000E+00 0.00000E+00
 -1        23 0.00000E+00 0.00000E+00 0.00000E+00
 -1        24 0.00000E+00 0.00000E+00 0.00000E+00
 -1        25 0.00000E+00 0.00000E+00 0.00000E+00
 -1        26 0.00000E+00 0.00000E+00 0.00000E+00
 -1        27 0.00000E+00 0.00000E+00 0.00000E+00
 -1        28 0.00000E+00 0.00000E+00 0.00000E+00
 -1        29 0.00000E+00 0.00000E+00 0.00000E+00
 -1        30 0.00000E+00 0.00000E+00 0.00000E+00
 -1        31 0.00000E+00 0.00000E+00 0.00000E+00
 -1        32 0.00000E+00 0.00000E+00 0.00000E+00
 -1        44 1.20581E-04-1.27277E-03 1.85367E-04
 -1        45 2.77234E-05-9.88737E-04 2.98588E-04
 -1        46-3.34096E-05-7.25176E-04 3.42235E-04
 -1        47 4.26453E-05-2.93386E-04 2.25100E-04
 -1        48-4.26618E-05-2.93381E-04 2.25099E-04
 -1        49 3.34011E-05-7.25183E-04 3.42210E-04
 -1        50-2.78743E-05-9.88603E-04 2.98611E-04
 -1        51-1.20663E-04-1.27272E-03 1.85438E-04
 -1        74-1.21280E-04-1.26888E-03-1.85435E-04
 -1        75-2.86141E-05-9.87206E-04-2.98811E-04
 -1        76 3.31182E-05-7.25308E-04-3.42347E-04
 -1        77-4.25254E-05-2.93844E-04-2.25100E-04
 -1        89 1.21025E-04-1.26916E-03-1.85411E-04
 -1        90 2.86080E-05-9.87135E-04-2.98804E-04
 -1        91-3.30930E-05-7.25300E-04-3.42323E-04
 -1        92 4.25425E-05-2.93818E-04-2.25076E-04
 -1        98 0.00000E+00 0.00000E+00 0.00000E+00
 -1        99 0.00000E+00 0.00000E+00 0.00000E+00
 -1       100 0.00000E+00 0.00000E+00 0.00000E+00
 -1       101 0.00000E+00 0.00000E+00 0.00000E+00
 -1       102 0.00000E+00 0.00000E+00 0.00000E+00
 -1       124-5.13953E-07-1.17233E-03 1.74715E-04
 -1       125-1.28313E-07-1.40003E-03 1.83273E-04
 -1       126 3.68119E-07-1.17227E-03 1.74676E-04
 -1       127-2.75250E-08-1.03120E-03 3.30289E-04
 -1       128 2.07962E-06-7.59687E-04 3.67078E-04
 -1       129-5.21422E-08-7.04084E-04 3.74037E-04
 -1       130-2.14219E-06-7.59701E-04 3.67098E-04
 -1       131-4.08699E-09-2.97573E-04 2.18655E-04
 -1       153-9.95262E-05-1.52253E-03 8.24029E-05
 -1       154 7.45516E-07-1.34403E-03-7.39271E-08
 -1       155 9.92147E-05-1.51575E-03-8.24659E-05
 -1       156 5.34077E-07-1.11439E-03 9.92724E-08
 -1       157 1.97968E-05-6.27928E-04 1.47265E-04
 -1       158-1.25224E-07-6.41668E-04 6.23921E-08
 -1       159-1.97091E-05-6.29114E-04-1.47297E-04
 -1       160-1.86718E-07-2.44098E-04-2.74949E-08
 -1       182-5.83863E-06-1.17396E-03-1.74727E-04
 -1       183-8.04342E-08-1.39730E-03-1.83440E-04
 -1       184 5.66935E-06-1.17405E-03-1.74755E-04
 -1       185-6.14873E-09-1.03011E-03-3.30566E-04
 -1       186 3.14490E-06-7.59365E-04-3.67089E-04
 -1       187 1.23024E-08-7.05414E-04-3.74059E-04
 -1       188-3.12826E-06-7.59371E-04-3.67066E-04
 -1       189 1.02963E-08-2.97841E-04-2.18656E-04
 -1       211-9.93381E-05-1.51586E-03-8.23002E-05
 -1       212-7.74563E-07-1.34392E-03-7.12886E-08
 -1       213 9.95410E-05-1.52241E-03 8.22678E-05
 -1       214-5.54068E-07-1.11441E-03 1.34786E-07
 -1       215 1.97013E-05-6.29059E-04-1.47308E-04
 -1       216 9.55933E-08-6.41585E-04 8.38435E-08
 -1       217-1.98288E-05-6.27901E-04 1.47305E-04
 -1       218 1.81594E-07-2.44086E-04-2.67987E-08
 -1       250-4.91731E-08-1.50780E-03 8.17767E-05
 -1       251-3.01611E-06-9.57119E-04-5.07475E-08
 -1       252 5.92821E-08-1.22279E-03-5.68808E-08
 -1       253 3.04016E-06-9.57189E-04-5.60899E-08
 -1       254-1.29017E-08-1.51226E-03-8.18051E-05
 -1       255-1.72288E-08-1.09012E-03 1.86284E-08
 -1       256-2.14632E-08-6.21106E-04 1.64255E-04
 -1       257 6.38534E-07-7.24310E-04-1.12014E-08
 -1       258 2.77782E-09-6.42795E-04-9.01392E-09
 -1       259-6.44096E-07-7.24347E-04-2.16353E-08
 -1       260 8.38509E-09-6.20466E-04-1.64276E-04
 -1       261-7.78265E-09-2.75825E-04 2.85025E-08
 -3
    1PSTEP                         4           4           1          
  100CL  104 2.00000E-02          81                     1    4           1
 -4  DISP        4    1
 -5  D1          1    2    1    0
 -5  D2          1    2    2    0
 -5  D3          1    2    3    0
 -5  ALL         1    2    0    0    1ALL
 -1         5 0.00000E+00 0.00000E+00 0.00000E+00
 -1         6 0.00000E+00 0.00000E+00 0.00000E+00
 -1         7 0.00000E+00 0.00000E+00 0.00000E+00
 -1         8 0.00000E+00 0.00000E+00 0.00000E+00
 -1        21 0.00000E+00 0.00000E+00 0.00000E+00
 -1        22 0.00000E+00 0.00000E+00 0.00000E+00
 -1        23 0.00000E+00 0.00000E+00 0.00000E+00
 -1        24 0.00000E+00 0.00000E+00 0.00000E+00
 -1        25 0.00000E+00 0.00000E+00 0.00000E+00
 -1        26 0.00000E+00 0.00000E+00 0.00000E+00
 -1        27 0.00000E+00 0.00000E+00 0.00000E+00
 -1        28 0.00000E+00 0.00000E+00 0.00000E+00
 -1        29 0.00000E+00 0.00000E+00 0.00000E+00
 -1        30 0.00000E+00 0.00000E+00 0.00000E+00
 -1        31 0.00000E+00 0.00000E+00 0.00000E+00
 -1        32 0.00000E+00 0.00000E+00 0.00000E+00
 -1        44-9.39286E-05 9.89220E-04-1.43794E-04
 -1        45-2.14527E-05 7.68562E-04-2.31697E-04
 -1        46 2.56696E-05 5.61653E-04-2.65441E-04
 -1        47-3.31876E-05 2.27403E-04-1.74693E-04
 -1        48 3.31923E-05 2.27397E-04-1.74684E-04
 -1        49-2.56296E-05 5.61649E-04-2.65440E-04
 -1        50 2.14307E-05 7.68567E-04-2.31727E-04
 -1        51 9.39375E-05 9.89323E-04-1.43846E-04
 -1        74 9.59100E-05 9.86547E-04 1.43840E-04
 -1        75 2.26319E-05 7.67163E-04 2.31774E-04
 -1        76-2.59979E-05 5.62154E-04 2.65481E-04
 -1        77 3.28718E-05 2.27802E-04 1.74684E-04
 -1        89-9.59168E-05 9.86435E-04 1.43792E-04
 -1        90-2.26667E-05 7.67140E-04 2.31746E-04
 -1        91 2.60254E-05 5.62149E-04 2.65476E-04
 -1        92-3.28713E-05 2.27803E-04 1.74689E-04
 -1        98 0.00000E+00 0.00000E+00 0.00000E+00
 -1        99 0.00000E+00 0.00000E+00 0.00000E+00
 -1       100 0.00000E+00 0.00000E+00 0.00000E+00
 -1       101 0.00000E+00 0.00000E+00 0.00000E+00
 -1       102 0.00000E+00 0.00000E+00 0.00000E+00
 -1       124 2.22680E-06 9.09070E-04-1.35505E-04
 -1       125-3.80745E-08 1.08795E-03-1.42146E-04
 -1       126-2.24453E-06 9.09055E-04-1.35504E-04
 -1       127 1.47046E-08 8.00380E-04-2.56291E-04
 -1       128-1.91059E-06 5.89701E-04-2.84898E-04
 -1       129-5.85511E-09 5.46607E-04-2.90363E-04
 -1       130 1.92015E-06 5.89696E-04-2.84892E-04
 -1       131 5.34848E-09 2.30840E-04-1.69692E-04
 -1       153 7.77781E-05 1.17992E-03-6.38828E-05
 -1       154 1.16190E-07 1.04391E-03 7.09197E-09
 -1       155-7.83015E-05 1.17685E-03 6.39103E-05
 -1       156-1.42668E-07 8.64914E-04-1.39565E-07
 -1       157-1.55929E-05 4.87474E-04-1.14308E-04
 -1       158-3.77181E-08 4.98034E-04-5.49709E-08
 -1       159 1.57033E-05 4.88113E-04 1.14330E-04
 -1       160 5.74367E-08 1.89353E-04 8.02680E-09
 -1       182 5.06959E-06 9.10108E-04 1.35498E-04
 -1       183-4.17455E-08 1.08648E-03 1.42153E-04
 -1       184-5.09855E-06 9.10088E-04 1.35494E-04
 -1       185 6.04135E-09 8.00159E-04 2.56545E-04
 -1       186-2.51755E-06 5.89475E-04 2.84886E-04
 -1       187-1.01211E-08 5.47032E-04 2.90443E-04
 -1       188 2.51641E-06 5.89465E-04 2.84877E-04
 -1       189 2.79594E-09 2.30897E-04 1.69699E-04
 -1       211 7.83118E-05 1.17676E-03 6.39002E-05
 -1       212-1.42876E-07 1.04391E-03-6.64460E-09
 -1       213-7.77605E-05 1.18000E-03-6.38703E-05
 -1       214 1.80670E-07 8.64909E-04-1.37428E-07
 -1       215-1.57036E-05 4.88113E-04 1.14324E-04
 -1       216 1.95693E-08 4.98028E-04-5.53519E-08
 -1       217 1.55987E-05 4.87463E-04-1.14318E-04
 -1       218-5.23569E-08 1.89351E-04 6.16615E-10
 -1       250 1.11207E-08 1.17279E-03-6.34179E-05
 -1       251 1.20771E-06 7.43093E-04-1.20765E-09
 -1       252 7.15678E-08 9.47876E-04 1.87981E-08
 -1       253-1.15587E-06 7.43096E-04 3.77249E-08
 -1       254 9.48871E-09 1.17466E-03 6.33849E-05
 -1       255-3.18263E-10 8.45702E-04-4.91225E-10
 -1       256 5.88619E-09 4.81667E-04-1.27468E-04
 -1       257-2.55905E-07 5.62202E-04 1.06884E-08
 -1       258 1.50201E-08 4.99130E-04-1.73330E-09
 -1       259 2.64444E-07 5.62205E-04 2.85276E-09
 -1       260 3.64854E-09 4.81303E-04 1.27461E-04
 -1       261-3.46256E-09 2.14258E-04-6.68796E-09
 -3
    1PSTEP                         5           5           1          
  100CL  105 2.50000E-02          81                     1    5           1
 -4  DISP        4    1
 -5  D1          1    2    1    0
 -5  D2          1    2    2    0
 -5  D3          1    2    3    0
 -5  ALL         1    2    0    0    1ALL
 -1         5 0.00000E+00 0.00000E+00 0.00000E+00
 -1         6 0.00000E+00 0.00000E+00 0.00000E+00
 -1         7 0.00000E+00 0.00000E+00 0.00000E+00
 -1         8 0.00000E+00 0.00000E+00 0.00000E+00
 -1        21 0.00000E+00 0.00000E+00 0.00000E+00
 -1        22 0.00000E+00 0.00000E+00 0.00000E+00
 -1        23 0.00000E+00 0.00000E+00 0.00000E+00
 -1        24 0.00000E+00 0.00000E+00 0.00000E+00
 -1        25 0.00000E+00 0.00000E+00 0.00000E+00
 -1        26 0.00000E+00 0.00000E+00 0.00000E+00
 -1        27 0.00000E+00 0.00000E+00 0.00000E+00
 -1        28 0.00000E+00 0.00000E+00 0.00000E+00
 -1        29 0.00000E+00 0.00000E+00 0.00000E+00
 -1        30 0.00000E+00 0.00000E+00 0.00000E+00
 -1        31 0.00000E+00 0.00000E+00 0.00000E+00
 -1        32 0.00000E+00 0.00000E+00 0.00000E+00
 -1        44 7.10927E-05-7.46330E-04 1.08704E-04
 -1        45 1.66483E-05-5.79822E-04 1.75083E-04
 -1        46-1.94504E-05-4.24557E-04 2.00707E-04
 -1        47 2.49863E-05-1.71847E-04 1.31934E-04
 -1        48-2.49887E-05-1.71842E-04 1.31926E-04
 -1        49 1.94378E-05-4.24572E-04 2.00704E-04
 -1        50-1.66255E-05-5.79814E-04 1.75083E-04
 -1        51-7.09762E-05-7.46488E-04 1.08708E-04
 -1        74-6.95237E-05-7.47485E-04-1.08745E-04
 -1        75-1.58561E-05-5.80486E-04-1.75167E-04
 -1        76 1.90364E-05-4.24228E-04-2.00726E-04
 -1        77-2.52217E-05-1.71665E-04-1.31922E-04
 -1        89 6.95785E-05-7.47444E-04-1.08766E-04
 -1        90 1.58754E-05-5.80461E-04-1.75162E-04
 -1        91-1.90518E-05-4.24245E-04-2.00722E-04
 -1        92 2.52167E-05-1.71668E-04-1.31920E-04
 -1        98 0.00000E+00 0.00000E+00 0.00000E+00
 -1        99 0.00000E+00 0.00000E+00 0.00000E+00
 -1       100 0.00000E+00 0.00000E+00 0.00000E+00
 -1       101 0.00000E+00 0.00000E+00 0.00000E+00
 -1       102 0.00000E+00 0.00000E+00 0.00000E+00
 -1       124-2.40413E-06-6.87181E-04 1.02447E-04
 -1       125 5.42186E-08-8.21227E-04 1.07429E-04
 -1       126 2.49821E-06-6.87126E-04 1.02426E-04
 -1       127 7.54950E-09-6.04513E-04 1.93885E-04
 -1       128 1.63043E-06-4.45392E-04 2.15252E-04
 -1       129 6.53999E-10-4.12992E-04 2.19368E-04
 -1       130-1.63186E-06-4.45379E-04 2.15258E-04
 -1       131-3.02476E-09-1.74361E-04 1.28206E-04
 -1       153-5.83686E-05-8.89797E-04 4.83177E-05
 -1       154 4.59223E-07-7.87094E-04-1.88112E-08
 -1       155 5.78034E-05-8.90529E-04-4.83040E-05
 -1       156 6.67952E-08-6.53435E-04-6.45983E-08
 -1       157 1.16666E-05-3.68270E-04 8.64128E-05
 -1       158-7.56312E-08-3.75891E-04-1.26546E-08
 -1       159-1.15260E-05-3.68076E-04-8.64052E-05
 -1       160-2.76448E-08-1.43049E-04-7.97890E-09
 -1       182-1.65076E-06-6.86949E-04-1.02482E-04
 -1       183 2.72179E-08-8.21478E-04-1.07541E-04
 -1       184 1.69163E-06-6.86958E-04-1.02475E-04
 -1       185 2.79063E-09-6.04280E-04-1.93772E-04
 -1       186 1.43239E-06-4.45454E-04-2.15272E-04
 -1       187 1.78014E-09-4.13086E-04-2.19304E-04
 -1       188-1.43487E-06-4.45456E-04-2.15273E-04
 -1       189-3.41518E-09-1.74418E-04-1.28200E-04
 -1       211-5.77684E-05-8.90467E-04-4.83090E-05
 -1       212-3.82987E-07-7.87058E-04-5.06669E-08
 -1       213 5.84540E-05-8.89877E-04 4.82460E-05
 -1       214-8.95135E-08-6.53460E-04-8.45625E-08
 -1       215 1.15354E-05-3.68081E-04-8.64101E-05
 -1       216 9.75313E-08-3.75873E-04-1.74816E-08
 -1       217-1.16590E-05-3.68264E-04 8.64201E-05
 -1       218 2.31300E-08-1.43051E-04-1.95886E-09
 -1       250 3.62577E-09-8.87192E-04 4.79396E-05
 -1       251 5.66803E-08-5.61317E-04 1.25693E-08
 -1       252-5.14670E-08-7.17059E-04-3.86873E-08
 -1       253-6.50336E-08-5.61342E-04-1.03075E-08
 -1       254-8.20845E-09-8.86902E-04-4.80194E-05
 -1       255 1.00815E-08-6.38698E-04 7.54468E-09
 -1       256-7.19944E-09-3.63709E-04 9.62727E-05
 -1       257-1.85736E-08-4.24522E-04-7.27274E-09
 -1       258-1.41931E-08-3.77129E-04 1.42551E-09
 -1       259 1.27661E-08-4.24530E-04 4.48324E-09
 -1       260-7.09633E-09-3.63842E-04-9.62841E-05
 -1       261 2.82983E-09-1.61743E-04 5.57866E-09
 -3
    1PSTEP                         6           6           1          
  100CL  106 3.00000E-02          81                     1    6           1
 -4  DISP        4    1
 -5  D1          1    2    1    0
 -5  D2          1    2    2    0
 -5  D3          1    2    3    0
 -5  ALL         1    2    0    0    1ALL
 -1         5 0.00000E+00 0.00000E+00 0.00000E+00
 -1         6 0.00000E+00 0.00000E+00 0.00000E+00
 -1         7 0.00000E+00 0.00000E+00 0.00000E+00
 -1         8 0.00000E+00 0.00000E+00 0.00000E+00
 -1        21 0.00000E+00 0.00000E+00 0.00000E+00
 -1        22 0.00000E+00 0.00000E+00 0.00000E+00
 -1        23 0.00000E+00 0.00000E+00 0.00000E+00
 -1        24 0.00000E+00 0.00000E+00 0.00000E+00
 -1        25 0.00000E+00 0.00000E+00 0.00000E+00
 -1        26 0.00000E+00 0.00000E+00 0.00000E+00
 -1        27 0.00000E+00 0.00000E+00 0.00000E+00
 -1        28 0.00000E+00 0.00000E+00 0.00000E+00
 -1        29 0.00000E+00 0.00000E+00 0.00000E+00
 -1        30 0.00000E+00 0.00000E+00 0.00000E+00
 -1        31 0.00000E+00 0.00000E+00 0.00000E+00
 -1        32 0.00000E+00 0.00000E+00 0.00000E+00
 -1        44-5.15621E-05 5.40851E-04-7.86767E-05
 -1        45-1.18442E-05 4.20186E-04-1.26801E-04
 -1        46 1.41246E-05 3.07612E-04-1.45233E-04
 -1        47-1.81009E-05 1.24558E-04-9.55988E-05