    1C
    1UUSER                                                              
    1UDATE              15.july.2018                                    
    1UTIME              21:43:01                                        
    1UHOST                                                              
    1UPGM               CalculiX                                        
    1UVERSION           Version 2.13                             
    1UCOMPILETIME       jue jun 14 00:40:39 CEST 2018                    
    1UDIR                                                               
    1UDBN                                                               
    1UMAT    1EL                                                        
    2C                            81                                     1
 -1         5 0.00000E+00 0.00000E+00 8.00000E+00
 -1         6 1.00000E+00 0.00000E+00 8.00000E+00
 -1         7 1.00000E+00 1.00000E+00 8.00000E+00
 -1         8 0.00000E+00 1.00000E+00 8.00000E+00
 -1        21 2.50000E-01 0.00000E+00 8.00000E+00
 -1        22 5.00000E-01 0.00000E+00 8.00000E+00
 -1        23 7.50000E-01 0.00000E+00 8.00000E+00
 -1        24 1.00000E+00 2.50000E-01 8.00000E+00
 -1        25 1.00000E+00 5.00000E-01 8.00000E+00
 -1        26 1.00000E+00 7.50000E-01 8.00000E+00
 -1        27 7.50000E-01 1.00000E+00 8.00000E+00
 -1        28 5.00000E-01 1.00000E+00 8.00000E+00
 -1        29 2.50000E-01 1.00000E+00 8.00000E+00
 -1        30 0.00000E+00 7.50000E-01 8.00000E+00
 -1        31 0.00000E+00 5.00000E-01 8.00000E+00
 -1        32 0.00000E+00 2.50000E-01 8.00000E+00
 -1        44 1.00000E+00 0.00000E+00 6.00000E+00
 -1        45 1.00000E+00 0.00000E+00 6.50000E+00
 -1        46 1.00000E+00 0.00000E+00 7.00000E+00
 -1        47 1.00000E+00 0.00000E+00 7.50000E+00
 -1        48 0.00000E+00 0.00000E+00 7.50000E+00
 -1        49 0.00000E+00 0.00000E+00 7.00000E+00
 -1        50 0.00000E+00 0.00000E+00 6.50000E+00
 -1        51 0.00000E+00 0.00000E+00 6.00000E+00
 -1        74 1.00000E+00 1.00000E+00 6.00000E+00
 -1        75 1.00000E+00 1.00000E+00 6.50000E+00
 -1        76 1.00000E+00 1.00000E+00 7.00000E+00
 -1        77 1.00000E+00 1.00000E+00 7.50000E+00
 -1        89 0.00000E+00 1.00000E+00 6.00000E+00
 -1        90 0.00000E+00 1.00000E+00 6.50000E+00
 -1        91 0.00000E+00 1.00000E+00 7.00000E+00
 -1        92 0.00000E+00 1.00000E+00 7.50000E+00
 -1        98 5.00000E-01 2.50000E-01 8.00000E+00
 -1        99 2.50000E-01 5.00000E-01 8.00000E+00
 -1       100 5.00000E-01 5.00000E-01 8.00000E+00
 -1       101 7.50000E-01 5.00000E-01 8.00000E+00
 -1       102 5.00000E-01 7.50000E-01 8.00000E+00
 -1       124 2.50000E-01 0.00000E+00 6.00000E+00
 -1       125 5.00000E-01 0.00000E+00 6.00000E+00
 -1       126 7.50000E-01 0.00000E+00 6.00000E+00
 -1       127 5.00000E-01 0.00000E+00 6.50000E+00
 -1       128 2.50000E-01 0.00000E+00 7.00000E+00
 -1       129 5.00000E-01 0.00000E+00 7.00000E+00
 -1       130 7.50000E-01 0.00000E+00 7.00000E+00
 -1       131 5.00000E-01 0.00000E+00 7.50000E+00
 -1       153 1.00000E+00 2.50000E-01 6.00000E+00
 -1       154 1.00000E+00 5.00000E-01 6.00000E+00
 -1       155 1.00000E+00 7.50000E-01 6.00000E+00
 -1       156 1.00000E+00 5.00000E-01 6.50000E+00
 -1       157 1.00000E+00 2.50000E-01 7.00000E+00
 -1       158 1.00000E+00 5.00000E-01 7.00000E+00
 -1       159 1.00000E+00 7.50000E-01 7.00000E+00
 -1       160 1.00000E+00 5.00000E-01 7.50000E+00
 -1       182 7.50000E-01 1.00000E+00 6.00000E+00
 -1       183 5.00000E-01 1.00000E+00 6.00000E+00
 -1       184 2.50000E-01 1.00000E+00 6.00000E+00
 -1       185 5.00000E-01 1.00000E+00 6.50000E+00
 -1       186 7.50000E-01 1.00000E+00 7.00000E+00
 -1       187 5.00000E-01 1.00000E+00 7.00000E+00
 -1       188 2.50000E-01 1.00000E+00 7.00000E+00
 -1       189 5.00000E-01 1.00000E+00 7.50000E+00
 -1       211 0.00000E+00 7.50000E-01 6.00000E+00
 -1       212 0.00000E+00 5.00000E-01 6.00000E+00
 -1       213 0.00000E+00 2.50000E-01 6.00000E+00
 -1       214 0.00000E+00 5.00000E-01 6.50000E+00
 -1       215 0.00000E+00 7.50000E-01 7.00000E+00
 -1       216 0.00000E+00 5.00000E-01 7.00000E+00
 -1       217 0.00000E+00 2.50000E-01 7.00000E+00
 -1       218 0.00000E+00 5.00000E-01 7.50000E+00
 -1       250 5.00000E-01 2.50000E-01 6.00000E+00
 -1       251 2.50000E-01 5.00000E-01 6.00000E+00
 -1       252 5.00000E-01 5.00000E-01 6.00000E+00
 -1       253 7.50000E-01 5.00000E-01 6.00000E+00
 -1       254 5.00000E-01 7.50000E-01 6.00000E+00
 -1       255 5.00000E-01 5.00000E-01 6.50000E+00
 -1       256 5.00000E-01 2.50000E-01 7.00000E+00
 -1       257 2.50000E-01 5.00000E-01 7.00000E+00
 -1       258 5.00000E-01 5.00000E-01 7.00000E+00
 -1       259 7.50000E-01 5.00000E-01 7.00000E+00
 -1       260 5.00000E-01 7.50000E-01 7.00000E+00
 -1       261 5.00000E-01 5.00000E-01 7.50000E+00
 -3
    3C                             8                                     1
 -1        25    4    0    1
 -2        51       125       252       212        49       129       258       216       124       250
 -2       251       213        50       127       255       214       128       256       257       217
 -1        26    4    0    1
 -2       125        44       154       252       129        46       158       258       126       153
 -2       253       250       127        45       156       255       130       157       259       256
 -1        27    4    0    1
 -2       212       252       183        89       216       258       187        91       251       254
 -2       184       211       214       255       185        90       257       260       188       215
 -1        28    4    0    1
 -2       252       154        74       183       258       158        76       187       253       155
 -2       182       254       255       156        75       185       259       159       186       260
 -1        29    4    0    1
 -2        49       129       258       216         5        22       100        31       128       256
 -2       257       217        48       131       261       218        21        98        99        32
 -1        30    4    0    1
 -2       129        46       158       258        22         6        25       100       130       157
 -2       259       256       131        47       160       261        23        24       101        98
 -1        31    4    0    1
 -2       216       258       187        91        31       100        28         8       257       260
 -2       188       215       218       261       189        92        99       102        29        30
 -1        32    4    0    1
 -2       258       158        76       187       100        25         7        28       259       159
 -2       186       260       261       160        77       189       101        26        27       102
 -3
    1PSTEP                         1           1           1          
  100CL  101 5.00000E-03          81                     1    1           1
 -4  DISP        4    1
 -5  D1          1    2    1    0
 -5  D2          1    2    2    0
 -5  D3          1    2    3    0
 -5  ALL         1    2    0    0    1ALL
 -1         5 0.00000E+00 0.00000E+00 0.00000E+00
 -1         6 0.00000E+00 0.00000E+00 0.00000E+00
 -1         7 0.00000E+00 0.00000E+00 0.00000E+00
 -1         8 0.00000E+00 0.00000E+00 0.00000E+00
 -1        21 0.00000E+00 0.00000E+00 0.00000E+00
 -1        22 0.00000E+00 0.00000E+00 0.00000E+00
 -1        23 0.00000E+00 0.00000E+00 0.00000E+00
 -1        24 0.00000E+00 0.00000E+00 0.00000E+00
 -1        25 0.00000E+00 0.00000E+00 0.00000E+00
 -1        26 0.00000E+00 0.00000E+00 0.00000E+00
 -1        27 0.00000E+00 0.00000E+00 0.00000E+00
 -1        28 0.00000E+00 0.00000E+00 0.00000E+00
 -1        29 0.00000E+00 0.00000E+00 0.00000E+00
 -1        30 0.00000E+00 0.00000E+00 0.00000E+00
 -1        31 0.00000E+00 0.00000E+00 0.00000E+00
 -1        32 0.00000E+00 0.00000E+00 0.00000E+00
 -1        44-6.00395E-05-3.46638E-03 4.48679E-04
 -1        45 5.66885E-05-2.56267E-03 7.85912E-04
 -1        46-4.75596E-05-1.79602E-03 9.49525E-04
 -1        47 1.30989E-04-6.75141E-04 5.43337E-04
 -1        48-1.30988E-04-6.75139E-04 5.43335E-04
 -1        49 4.75729E-05-1.79602E-03 9.49516E-04
 -1        50-5.66748E-05-2.56267E-03 7.85889E-04
 -1        51 6.01163E-05-3.46636E-03 4.48625E-04
 -1        74 3.19390E-04-4.41295E-03-4.94799E-04
 -1        75 1.91295E-04-2.97265E-03-7.85584E-04
 -1        76-1.10458E-04-1.59799E-03-9.50138E-04
 -1        77-2.07917E-04-5.26874E-04-5.58254E-04
 -1        89-3.19317E-04-4.41296E-03-4.94847E-04
 -1        90-1.91280E-04-2.97265E-03-7.85605E-04
 -1        91 1.10470E-04-1.59799E-03-9.50147E-04
 -1        92 2.07917E-04-5.26876E-04-5.58257E-04
 -1        98 0.00000E+00 0.00000E+00 0.00000E+00
 -1        99 0.00000E+00 0.00000E+00 0.00000E+00
 -1       100 0.00000E+00 0.00000E+00 0.00000E+00
 -1       101 0.00000E+00 0.00000E+00 0.00000E+00
 -1       102 0.00000E+00 0.00000E+00 0.00000E+00
 -1       124 1.48494E-04-2.96694E-03 4.29911E-04
 -1       125 1.69709E-08-3.58915E-03 4.48625E-04
 -1       126-1.48441E-04-2.96695E-03 4.29920E-04
 -1       127 1.45005E-08-2.56298E-03 9.03405E-04
 -1       128-8.93366E-06-1.95306E-03 9.48403E-04
 -1       129-3.15819E-10-1.81489E-03 9.41848E-04
 -1       130 8.93994E-06-1.95307E-03 9.48411E-04
 -1       131 2.63893E-10-7.36503E-04 5.56499E-04
 -1       153 6.99844E-05-3.63723E-03 1.91484E-04
 -1       154-1.19983E-04-2.50520E-03-2.11187E-05
 -1       155-6.55696E-05-3.89102E-03-2.38046E-04
 -1       156-1.20033E-04-2.78946E-03-6.47116E-05
 -1       157-2.05152E-05-1.50953E-03 3.92433E-04
 -1       158 8.82850E-05-1.56765E-03-2.93548E-05
 -1       159 4.68181E-05-1.47595E-03-4.11161E-04
 -1       160 3.97466E-05-6.56580E-04 4.91027E-06
 -1       182 1.14649E-04-2.56395E-03-4.71338E-04
 -1       183 1.75692E-08-4.35459E-03-4.77037E-04
 -1       184-1.14597E-04-2.56395E-03-4.71346E-04
 -1       185 1.43409E-08-2.83321E-03-8.74057E-04
 -1       186-4.40216E-05-2.16249E-03-9.82913E-04
 -1       187-5.85730E-11-1.83234E-03-9.63930E-04
 -1       188 4.40277E-05-2.16249E-03-9.82921E-04
 -1       189 2.13976E-10-7.20157E-04-5.64599E-04
 -1       211 6.56511E-05-3.89103E-03-2.38090E-04
 -1       212 1.20071E-04-2.50520E-03-2.11667E-05
 -1       213-6.99006E-05-3.63722E-03 1.91439E-04
 -1       214 1.20046E-04-2.78946E-03-6.47349E-05
 -1       215-4.68035E-05-1.47596E-03-4.11171E-04
 -1       216-8.82688E-05-1.56765E-03-2.93634E-05
 -1       217 2.05301E-05-1.50953E-03 3.92423E-04
 -1       218-3.97459E-05-6.56580E-04 4.90977E-06
 -1       250 1.55437E-08-4.08179E-03 1.74339E-04
 -1       251 3.08182E-05-2.57282E-03-1.07841E-05
 -1       252 1.42853E-08-3.12328E-03-1.66082E-05
 -1       253-3.07629E-05-2.57282E-03-1.07849E-05
 -1       254 1.56349E-08-4.41243E-03-2.54645E-04
 -1       255 1.63837E-08-2.60034E-03-3.20303E-05
 -1       256-7.30074E-10-1.60741E-03 3.95752E-04
 -1       257-4.11800E-05-1.74962E-03-1.20287E-05
 -1       258-1.38691E-09-1.79008E-03-1.45320E-05
 -1       259 4.11867E-05-1.74962E-03-1.20188E-05
 -1       260-5.40181E-10-1.62269E-03-4.18425E-04
 -1       261 1.05605E-09-7.17065E-04-1.96945E-06
 -3
    1PSTEP                         2           2           1          
  100CL  102 1.00000E-02          81                     1    2           1
 -4  DISP        4    1
 -5  D1          1    2    1    0
 -5  D2          1    2    2    0
 -5  D3          1    2    3    0
 -5  ALL         1    2    0    0    1ALL
 -1         5 0.00000E+00 0.00000E+00 0.00000E+00
 -1         6 0.00000E+00 0.00000E+00 0.00000E+00
 -1         7 0.00000E+00 0.00000E+00 0.00000E+00
 -1         8 0.00000E+00 0.00000E+00 0.00000E+00
 -1        21 0.00000E+00 0.00000E+00 0.00000E+00
 -1        22 0.00000E+00 0.00000E+00 0.00000E+00
 -1        23 0.00000E+00 0.00000E+00 0.00000E+00
 -1        24 0.00000E+00 0.00000E+00 0.00000E+00
 -1        25 0.00000E+00 0.00000E+00 0.00000E+00
 -1        26 0.00000E+00 0.00000E+00 0.00000E+00
 -1        27 0.00000E+00 0.00000E+00 0.00000E+00
 -1        28 0.00000E+00 0.00000E+00 0.00000E+00
 -1        29 0.00000E+00 0.00000E+00 0.00000E+00
 -1        30 0.00000E+00 0.00000E+00 0.00000E+00
 -1        31 0.00000E+00 0.00000E+00 0.00000E+00
 -1        32 0.00000E+00 0.00000E+00 0.00000E+00
 -1        44-1.59663E-04 1.59909E-03-2.34024E-04
 -1        45-3.99060E-05 1.24371E-03-3.77454E-04
 -1        46 4.41358E-05 9.17167E-04-4.32247E-04
 -1        47-5.25829E-05 3.71490E-04-2.84047E-04
 -1        48 5.25847E-05 3.71492E-04-2.84055E-04
 -1        49-4.41502E-05 9.17163E-04-4.32249E-04
 -1        50 3.99448E-05 1.24369E-03-3.77434E-04
 -1        51 1.59683E-04 1.59899E-03-2.33980E-04
 -1        74 1.42447E-04 1.61974E-03 2.34264E-04
 -1        75 2.95577E-05 1.25487E-03 3.77410E-04
 -1        76-3.84977E-05 9.11332E-04 4.32252E-04
 -1        77 5.55892E-05 3.68128E-04 2.84134E-04
 -1        89-1.42410E-04 1.61974E-03 2.34220E-04
 -1        90-2.95372E-05 1.25489E-03 3.77411E-04
 -1        91 3.84850E-05 9.11315E-04 4.32252E-04
 -1        92-5.55930E-05 3.68123E-04 2.84130E-04
 -1        98 0.00000E+00 0.00000E+00 0.00000E+00
 -1        99 0.00000E+00 0.00000E+00 0.00000E+00
 -1       100 0.00000E+00 0.00000E+00 0.00000E+00
 -1       101 0.00000E+00 0.00000E+00 0.00000E+00
 -1       102 0.00000E+00 0.00000E+00 0.00000E+00
 -1       124 7.65512E-06 1.48344E-03-2.20466E-04
 -1       125 4.36734E-08 1.76387E-03-2.31345E-04
 -1       126-7.61303E-06 1.48346E-03-2.20476E-04
 -1       127 1.54121E-09 1.30174E-03-4.18242E-04
 -1       128-4.37836E-06 9.58277E-04-4.63473E-04
 -1       129 1.18120E-08 8.89652E-04-4.72682E-04
 -1       130 4.38635E-06 9.58285E-04-4.63477E-04
 -1       131-1.37928E-09 3.75489E-04-2.76044E-04
 -1       153 1.27853E-04 1.91492E-03-1.03894E-04
 -1       154-2.42663E-06 1.69599E-03-4.04694E-09
 -1       155-1.22342E-04 1.92289E-03 1.04089E-04
 -1       156 9.51707E-07 1.40679E-03 1.29176E-06
 -1       157-2.56416E-05 7.94100E-04-1.86026E-04
 -1       158-2.82532E-07 8.09957E-04 5.24735E-07
 -1       159 2.42815E-05 7.91939E-04 1.86017E-04
 -1       160-2.52902E-07 3.08079E-04 2.41954E-08
 -1       182 1.04749E-06 1.47585E-03 2.20751E-04
 -1       183 3.06530E-08 1.77377E-03 2.31584E-04
 -1       184-1.01287E-06 1.47582E-03 2.20713E-04
 -1       185-7.10473E-09 1.30243E-03 4.16122E-04
 -1       186-2.18935E-06 9.60569E-04 4.63749E-04
 -1       187 7.82348E-09 8.89405E-04 4.72063E-04
 -1       188 2.19433E-06 9.60568E-04 4.63752E-04
 -1       189-2.78237E-09 3.75501E-04 2.75992E-04
 -1       211 1.22335E-04 1.92291E-03 1.04088E-04
 -1       212 2.41569E-06 1.69598E-03 3.17470E-08
 -1       213-1.27869E-04 1.91485E-03-1.03883E-04
 -1       214-9.57854E-07 1.40678E-03 1.28924E-06
 -1       215-2.42795E-05 7.91927E-04 1.86013E-04
 -1       216 2.92120E-07 8.09958E-04 5.19461E-07
 -1       217 2.56432E-05 7.94103E-04-1.86023E-04
 -1       218 2.53575E-07 3.08077E-04 2.62022E-08
 -1       250 6.18227E-09 1.90860E-03-1.02972E-04
 -1       251-8.42676E-07 1.20896E-03-1.05229E-07
 -1       252-3.75234E-08 1.54307E-03 2.88676E-08
 -1       253 8.08889E-07 1.20896E-03-1.26869E-07
 -1       254 2.78102E-09 1.90885E-03 1.03628E-04
 -1       255 2.29214E-09 1.37600E-03 1.64170E-07
 -1       256 3.08360E-09 7.82951E-04-2.07313E-04
 -1       257 5.87186E-07 9.14190E-04 3.58303E-08
 -1       258-4.41367E-09 8.11673E-04 7.76477E-08
 -1       259-5.89527E-07 9.14189E-04 3.96083E-08
 -1       260 1.19863E-10 7.83797E-04 2.07473E-04
 -1       261 3.17925E-09 3.48252E-04 1.04819E-08
 -3
    1PSTEP                         3           3           1          
  100CL  103 1.50000E-02          81                     1    3           1
 -4  DISP        4    1
 -5  D1          1    2    1    0
 -5  D2          1    2    2    0
 -5  D3          1    2    3    0
 -5  ALL         1    2    0    0    1ALL
 -1         5 0.00000E+00 0.00000E+00 0.00000E+00
 -1         6 0.00000E+00 0.00000E+00 0.00000E+00
 -1         7 0.00000E+00 0.00000E+00 0.00000E+00
 -1         8 0.00000E+00 0.00000E+00 0.00000E+00
 -1        21 0.00000E+00 0.00000E+00 0.00000E+00
 -1        22 0.00000E+00 0.00000E+00 0.00000E+00
 -1        23 0.00000E+00 0.00000E+00 0.00000E+00
 -1        24 0.00000E+00 0.00000E+00 0.00000E+00
 -1        25 0.00000E+00 0.00000E+00 0.00000E+00
 -1        26 0.00000E+00 0.00000E+00 0.00000E+00
 -1        27 0.00000E+00 0.00000E+00 0.00000E+00
 -1        28 0.00000E+00 0.00000E+00 0.00000E+00
 -1        29 0.00000E+00 0.00000E+00 0.00000E+00
 -1        30 0.00000E+00 0.00000E+00 0.00000E+00
 -1        31 0.00000E+00 0.00000E+00 0.00000E+00
 -1        32 0.00000E+00 0.00000E+00 0.00000E+00
 -1        44 1.27565E-04-1.26716E-03 1.85441E-04
 -1        45 3.07895E-05-9.86029E-04 2.98860E-04
 -1        46-3.47386E-05-7.25846E-04 3.41709E-04
 -1        47 4.17498E-05-2.94303E-04 2.25151E-04
 -1        48-4.17557E-05-2.94296E-04 2.25115E-04
 -1        49 3.46845E-05-7.25800E-04 3.41682E-04
 -1        50-3.06124E-05-9.86174E-04 2.98933E-04
 -1        51-1.27187E-04-1.26752E-03 1.85357E-04
 -1        74-1.20461E-04-1.27413E-03-1.85438E-04
 -1        75-2.65776E-05-9.90087E-04-2.98990E-04
 -1        76 3.24167E-05-7.23640E-04-3.41687E-04
 -1        77-4.29310E-05-2.93139E-04-2.25096E-04
 -1        89 1.20496E-04-1.27385E-03-1.85368E-04
 -1        90 2.67906E-05-9.90023E-04-2.98911E-04
 -1        91-3.25689E-05-7.23685E-04-3.41734E-04
 -1        92 4.29174E-05-2.93170E-04-2.25163E-04
 -1        98 0.00000E+00 0.00000E+00 0.00000E+00
 -1        99 0.00000E+00 0.00000E+00 0.00000E+00
 -1       100 0.00000E+00 0.00000E+00 0.00000E+00
 -1       101 0.00000E+00 0.00000E+00 0.00000E+00
 -1       102 0.00000E+00 0.00000E+00 0.00000E+00
 -1       124-6.06320E-06-1.17427E-03 1.74668E-04
 -1       125 2.25210E-07-1.39779E-03 1.83319E-04
 -1       126 6.39482E-06-1.17425E-03 1.74715E-04
 -1       127 2.17728E-08-1.03134E-03 3.30465E-04
 -1       128 3.36004E-06-7.58846E-04 3.66948E-04
 -1       129 4.31014E-08-7.04270E-04 3.74375E-04
 -1       130-3.32290E-06-7.58836E-04 3.66951E-04
 -1       131-1.07732E-08-2.97384E-04 2.18541E-04
 -1       153-1.03109E-04-1.51971E-03 8.23924E-05
 -1       154 1.45415E-06-1.35034E-03-2.67355E-08
 -1       155 1.00595E-04-1.52198E-03-8.23354E-05
 -1       156-1.69640E-07-1.11402E-03-4.59044E-07
 -1       157 2.08324E-05-6.29302E-04 1.47142E-04
 -1       158 3.44492E-09-6.42296E-04-1.43578E-07
 -1       159-2.02327E-05-6.28549E-04-1.47083E-04
 -1       160 6.59768E-09-2.43708E-04-2.80333E-08
 -1       182-4.07988E-06-1.17181E-03-1.74564E-04
 -1       183 2.67937E-07-1.40007E-03-1.83489E-04
 -1       184 4.29081E-06-1.17187E-03-1.74749E-04
 -1       185-5.26908E-08-1.03092E-03-3.29537E-04
 -1       186 2.62977E-06-7.59397E-04-3.67037E-04
 -1       187 6.65472E-08-7.04330E-04-3.74045E-04
 -1       188-2.61845E-06-7.59381E-04-3.67009E-04
 -1       189-2.34360E-08-2.97479E-04-2.18514E-04
 -1       211-1.00586E-04-1.52178E-03-8.24107E-05
 -1       212-1.22449E-06-1.35047E-03 8.92795E-08
 -1       213 1.03291E-04-1.52008E-03 8.22606E-05
 -1       214 6.80835E-08-1.11404E-03-5.11568E-07
 -1       215 2.02360E-05-6.28610E-04-1.47084E-04
 -1       216 1.07510E-07-6.42321E-04-1.74784E-07
 -1       217-2.07803E-05-6.29266E-04 1.47145E-04
 -1       218-1.63990E-08-2.43713E-04 4.68865E-10
 -1       250 5.47758E-09-1.50889E-03 8.16184E-05
 -1       251-8.17431E-08-9.56985E-04 2.50151E-07
 -1       252-2.61603E-07-1.22016E-03-5.34774E-08
 -1       253-2.70682E-08-9.56924E-04-4.71803E-09
 -1       254 3.56841E-08-1.50883E-03-8.19645E-05
 -1       255 4.88075E-08-1.09096E-03-6.97637E-09
 -1       256-1.42019E-08-6.19851E-04 1.64352E-04
 -1       257-1.18549E-07-7.24593E-04-4.07847E-08
 -1       258-6.09629E-08-6.41661E-04 1.67089E-09
 -1       259 9.77737E-08-7.24579E-04 2.19786E-08
 -1       260-4.12861E-09-6.20127E-04-1.64345E-04
 -1       261 2.05929E-08-2.75795E-04 3.31029E-09
 -3
    1PSTEP                         4           4           1          
  100CL  104 2.00000E-02          81                     1    4           1
 -4  DISP        4    1
 -5  D1          1    2    1    0
 -5  D2          1    2    2    0
 -5  D3          1    2    3    0
 -5  ALL         1    2    0    0    1ALL
 -1         5 0.00000E+00 0.00000E+00 0.00000E+00
 -1         6 0.00000E+00 0.00000E+00 0.00000E+00
 -1         7 0.00000E+00 0.00000E+00 0.00000E+00
 -1         8 0.00000E+00 0.00000E+00 0.00000E+00
 -1        21 0.00000E+00 0.00000E+00 0.00000E+00
 -1        22 0.00000E+00 0.00000E+00 0.00000E+00
 -1        23 0.00000E+00 0.00000E+00 0.00000E+00
 -1        24 0.00000E+00 0.00000E+00 0.00000E+00
 -1        25 0.00000E+00 0.00000E+00 0.00000E+00
 -1        26 0.00000E+00 0.00000E+00 0.00000E+00
 -1        27 0.00000E+00 0.00000E+00 0.00000E+00
 -1        28 0.00000E+00 0.00000E+00 0.00000E+00
 -1        29 0.00000E+00 0.00000E+00 0.00000E+00
 -1        30 0.00000E+00 0.00000E+00 0.00000E+00
 -1        31 0.00000E+00 0.00000E+00 0.00000E+00
 -1        32 0.00000E+00 0.00000E+00 0.00000E+00
 -1        44-1.00904E-04 9.81832E-04-1.44201E-04
 -1        45-2.52206E-05 7.64213E-04-2.32351E-04
 -1        46 2.76154E-05 5.65003E-04-2.65720E-04
 -1        47-3.20710E-05 2.29032E-04-1.74929E-04
 -1        48 3.20625E-05 2.29033E-04-1.74923E-04
 -1        49-2.76218E-05 5.65018E-04-2.65707E-04
 -1        50 2.51989E-05 7.64188E-04-2.32314E-04
 -1        51 1.01000E-04 9.81720E-04-1.44207E-04
 -1        74 9.06117E-05 9.91052E-04 1.44209E-04
 -1        75 1.95267E-05 7.69695E-04 2.32366E-04
 -1        76-2.46794E-05 5.62165E-04 2.65761E-04
 -1        77 3.37201E-05 2.27481E-04 1.74935E-04
 -1        89-9.06580E-05 9.91079E-04 1.44218E-04
 -1        90-1.94879E-05 7.69718E-04 2.32388E-04
 -1        91 2.46333E-05 5.62158E-04 2.65753E-04
 -1        92-3.37239E-05 2.27479E-04 1.74921E-04
 -1        98 0.00000E+00 0.00000E+00 0.00000E+00
 -1        99 0.00000E+00 0.00000E+00 0.00000E+00
 -1       100 0.00000E+00 0.00000E+00 0.00000E+00
 -1       101 0.00000E+00 0.00000E+00 0.00000E+00
 -1       102 0.00000E+00 0.00000E+00 0.00000E+00
 -1       124 5.56737E-06 9.13400E-04-1.35884E-04
 -1       125-6.89057E-09 1.08490E-03-1.42568E-04
 -1       126-5.54575E-06 9.13433E-04-1.35943E-04
 -1       127 5.00539E-09 8.01439E-04-2.57257E-04
 -1       128-2.83105E-06 5.89356E-04-2.85196E-04
 -1       129-1.08981E-08 5.47078E-04-2.91022E-04
 -1       130 2.82203E-06 5.89354E-04-2.85191E-04
 -1       131-2.88182E-09 2.30979E-04-1.69815E-04
 -1       153 8.05263E-05 1.17995E-03-6.40670E-05
 -1       154-2.24451E-06 1.04815E-03-7.44839E-08
 -1       155-7.68319E-05 1.18443E-03 6.40867E-05
 -1       156-8.78718E-09 8.65582E-04 5.75253E-07
 -1       157-1.61713E-05 4.89045E-04-1.14401E-04
 -1       158 2.58635E-07 4.98767E-04 2.11594E-07
 -1       159 1.53366E-05 4.87734E-04 1.14315E-04
 -1       160 1.92934E-08 1.89330E-04 3.13500E-08
 -1       182 5.46833E-07 9.10377E-04 1.35999E-04
 -1       183 5.80205E-08 1.08805E-03 1.42702E-04
 -1       184-5.28285E-07 9.10338E-04 1.35917E-04
 -1       185-3.22350E-08 8.00679E-04 2.56114E-04
 -1       186-1.45944E-06 5.90043E-04 2.85258E-04
 -1       187 1.92098E-08 5.47087E-04 2.90560E-04
 -1       188 1.46021E-06 5.90049E-04 2.85272E-04
 -1       189-5.56975E-09 2.31138E-04 1.69763E-04
 -1       211 7.67653E-05 1.18445E-03 6.40794E-05
 -1       212 2.21128E-06 1.04809E-03 2.91246E-09
 -1       213-8.05193E-05 1.17985E-03-6.40588E-05
 -1       214-2.89255E-08 8.65587E-04 5.85881E-07
 -1       215-1.53534E-05 4.87725E-04 1.14322E-04
 -1       216-2.56374E-07 4.98768E-04 2.13933E-07
 -1       217 1.61739E-05 4.89057E-04-1.14385E-04
 -1       218-2.39171E-08 1.89331E-04 4.00008E-08
 -1       250-3.81226E-08 1.17260E-03-6.35945E-05
 -1       251-5.95278E-07 7.43426E-04-6.10242E-08
 -1       252-7.04282E-08 9.49030E-04 2.49966E-09
 -1       253 5.18914E-07 7.43452E-04-1.22763E-07
 -1       254 4.63245E-09 1.17105E-03 6.37693E-05
 -1       255-5.43137E-09 8.47623E-04-1.67782E-08
 -1       256-1.32530E-08 4.81444E-04-1.27720E-04
 -1       257 2.19972E-07 5.62800E-04-1.33220E-08
 -1       258-1.52569E-08 4.98436E-04 3.63846E-09
 -1       259-2.37315E-07 5.62799E-04-8.79172E-09
 -1       260-6.24274E-10 4.82110E-04 1.27764E-04
 -1       261 2.32351E-09 2.14092E-04-1.01582E-08
 -3
    1PSTEP                         5           5           1          
  100CL  105 2.50000E-02          81                     1    5           1
 -4  DISP        4    1
 -5  D1          1    2    1    0
 -5  D2          1    2    2    0
 -5  D3          1    2    3    0
 -5  ALL         1    2    0    0    1ALL
 -1         5 0.00000E+00 0.00000E+00 0.00000E+00
 -1         6 0.00000E+00 0.00000E+00 0.00000E+00
 -1         7 0.00000E+00 0.00000E+00 0.00000E+00
 -1         8 0.00000E+00 0.00000E+00 0.00000E+00
 -1        21 0.00000E+00 0.00000E+00 0.00000E+00
 -1        22 0.00000E+00 0.00000E+00 0.00000E+00
 -1        23 0.00000E+00 0.00000E+00 0.00000E+00
 -1        24 0.00000E+00 0.00000E+00 0.00000E+00
 -1        25 0.00000E+00 0.00000E+00 0.00000E+00
 -1        26 0.00000E+00 0.00000E+00 0.00000E+00
 -1        27 0.00000E+00 0.00000E+00 0.00000E+00
 -1        28 0.00000E+00 0.00000E+00 0.00000E+00
 -1        29 0.00000E+00 0.00000E+00 0.00000E+00
 -1        30 0.00000E+00 0.00000E+00 0.00000E+00
 -1        31 0.00000E+00 0.00000E+00 0.00000E+00
 -1        32 0.00000E+00 0.00000E+00 0.00000E+00
 -1        44 7.51390E-05-7.42357E-04 1.08766E-04
 -1        45 1.85165E-05-5.77580E-04 1.75274E-04
 -1        46-2.04074E-05-4.25797E-04 2.00575E-04
 -1        47 2.43796E-05-1.72605E-04 1.32008E-04
 -1        48-2.43780E-05-1.72604E-04 1.32004E-04
 -1        49 2.04210E-05-4.25798E-04 2.00568E-04
 -1        50-1.84977E-05-5.77583E-04 1.75273E-04
 -1        51-7.50549E-05-7.42426E-04 1.08759E-04
 -1        74-6.88437E-05-7.48239E-04-1.08798E-04
 -1        75-1.50361E-05-5.80952E-04-1.75303E-04
 -1        76 1.88754E-05-4.24303E-04-2.00573E-04
 -1        77-2.53595E-05-1.71665E-04-1.31998E-04
 -1        89 6.88541E-05-7.48210E-04-1.08792E-04
 -1        90 1.50710E-05-5.80950E-04-1.75310E-04
 -1        91-1.88803E-05-4.24303E-04-2.00577E-04
 -1        92 2.53623E-05-1.71669E-04-1.32005E-04
 -1        98 0.00000E+00 0.00000E+00 0.00000E+00
 -1        99 0.00000E+00 0.00000E+00 0.00000E+00
 -1       100 0.00000E+00 0.00000E+00 0.00000E+00
 -1       101 0.00000E+00 0.00000E+00 0.00000E+00
 -1       102 0.00000E+00 0.00000E+00 0.00000E+00
 -1       124-4.78359E-06-6.88766E-04 1.02546E-04
 -1       125 1.92359E-08-8.19591E-04 1.07553E-04
 -1       126 4.83771E-06-6.88739E-04 1.02530E-04
 -1       127 1.49529E-08-6.04815E-04 1.94058E-04
 -1       128 2.19950E-06-4.44982E-04 2.15229E-04
 -1       129 2.47834E-09-4.12998E-04 2.19572E-04
 -1       130-2.18870E-06-4.44979E-04 2.15236E-04
 -1       131 1.32933E-09-1.74310E-04 1.28168E-04
 -1       153-6.02335E-05-8.89273E-04 4.83429E-05
 -1       154 1.25937E-06-7.89875E-04-2.07926E-08
 -1       155 5.80388E-05-8.94024E-04-4.83403E-05
 -1       156-9.82114E-09-6.53148E-04-3.50898E-07
 -1       157 1.20873E-05-3.69120E-04 8.63491E-05
 -1       158-2.20749E-07-3.76453E-04-1.20687E-07
 -1       159-1.16020E-05-3.67995E-04-8.63006E-05
 -1       160 6.65272E-09-1.42985E-04-9.49953E-09
 -1       182 1.22772E-07-6.86841E-04-1.02563E-04
 -1       183 3.69601E-08-8.21645E-04-1.07641E-04
 -1       184-8.58108E-08-6.86846E-04-1.02575E-04
 -1       185 1.31699E-09-6.04462E-04-1.93378E-04
 -1       186 1.05936E-06-4.45407E-04-2.15272E-04
 -1       187 1.22630E-08-4.12771E-04-2.19294E-04
 -1       188-1.04817E-06-4.45404E-04-2.15271E-04
 -1       189-4.08406E-10-1.74401E-04-1.28145E-04
 -1       211-5.80522E-05-8.94011E-04-4.83236E-05
 -1       212-1.27313E-06-7.89895E-04 8.82485E-10
 -1       213 6.02599E-05-8.89324E-04 4.83286E-05
 -1       214 3.47238E-08-6.53154E-04-3.56251E-07
 -1       215 1.16042E-05-3.67998E-04-8.63090E-05
 -1       216 2.24877E-07-3.76452E-04-1.31523E-07
 -1       217-1.20763E-05-3.69118E-04 8.63446E-05
 -1       218-2.23832E-09-1.42985E-04-1.58879E-08
 -1       250 1.08162E-08-8.86310E-04 4.79542E-05
 -1       251 1.28178E-06-5.61329E-04 2.83767E-08
 -1       252 2.27679E-09-7.15867E-04-5.57497E-09
 -1       253-1.28116E-06-5.61320E-04 4.03712E-08
 -1       254 2.32071E-08-8.83585E-04-4.80526E-05
 -1       255 4.47072E-09-6.39365E-04 4.88744E-09
 -1       256 4.67021E-09-3.63302E-04 9.63651E-05
 -1       257-3.02947E-07-4.24675E-04 9.83403E-09
 -1       258 6.91720E-09-3.76489E-04-2.60807E-09
 -1       259 3.10659E-07-4.24675E-04 1.01356E-08
 -1       260 8.90136E-09-3.64006E-04-9.63953E-05
 -1       261 1.97672E-09-1.61689E-04 4.95247E-09
 -3
    1PSTEP                         6           6           1          
  100CL  106 3.00000E-02          81                     1    6           1
 -4  DISP        4    1
 -5  D1          1    2    1    0
 -5  D2          1    2    2    0
 -5  D3          1    2    3    0
 -5  ALL         1    2    0    0    1ALL
 -1         5 0.00000E+00 0.00000E+00 0.00000E+00
 -1         6 0.00000E+00 0.00000E+00 0.00000E+00
 -1         7 0.00000E+00 0.00000E+00 0.00000E+00
 -1         8 0.00000E+00 0.00000E+00 0.00000E+00
 -1        21 0.00000E+00 0.00000E+00 0.00000E+00
 -1        22 0.00000E+00 0.00000E+00 0.00000E+00
 -1        23 0.00000E+00 0.00000E+00 0.00000E+00
 -1        24 0.00000E+00 0.00000E+00 0.00000E+00
 -1        25 0.00000E+00 0.00000E+00 0.00000E+00
 -1        26 0.00000E+00 0.00000E+00 0.00000E+00
 -1        27 0.00000E+00 0.00000E+00 0.00000E+00
 -1        28 0.00000E+00 0.00000E+00 0.00000E+00
 -1        29 0.00000E+00 0.00000E+00 0.00000E+00
 -1        30 0.00000E+00 0.00000E+00 0.00000E+00
 -1        31 0.00000E+00 0.00000E+00 0.00000E+00
 -1        32 0.00000E+00 0.00000E+00 0.00000E+00
 -1        44-5.77265E-05 5.35194E-04-7.88887E-05
 -1        45-1.48825E-05 4.17113E-04-1.27229E-04
 -1        46 1.56115E-05 3.09871E-04-1.45377E-04
 -1        47-1.72048E-05 1.25777E-04-9.58094E-05