    1C
    1UUSER                                                              
    1UDATE              17.july.2018                                    
    1UTIME              01:34:44                                        
    1UHOST                                                              
    1UPGM               CalculiX                                        
    1UVERSION           Version 2.13                             
    1UCOMPILETIME       jue jun 14 00:40:39 CEST 2018                    
    1UDIR                                                               
    1UDBN                                                               
    1UMAT    1EL                                                        
    2C                            81                                     1
 -1         5 0.00000E+00 0.00000E+00 8.00000E+00
 -1         6 1.00000E+00 0.00000E+00 8.00000E+00
 -1         7 1.00000E+00 1.00000E+00 8.00000E+00
 -1         8 0.00000E+00 1.00000E+00 8.00000E+00
 -1        21 2.50000E-01 0.00000E+00 8.00000E+00
 -1        22 5.00000E-01 0.00000E+00 8.00000E+00
 -1        23 7.50000E-01 0.00000E+00 8.00000E+00
 -1        24 1.00000E+00 2.50000E-01 8.00000E+00
 -1        25 1.00000E+00 5.00000E-01 8.00000E+00
 -1        26 1.00000E+00 7.50000E-01 8.00000E+00
 -1        27 7.50000E-01 1.00000E+00 8.00000E+00
 -1        28 5.00000E-01 1.00000E+00 8.00000E+00
 -1        29 2.50000E-01 1.00000E+00 8.00000E+00
 -1        30 0.00000E+00 7.50000E-01 8.00000E+00
 -1        31 0.00000E+00 5.00000E-01 8.00000E+00
 -1        32 0.00000E+00 2.50000E-01 8.00000E+00
 -1        44 1.00000E+00 0.00000E+00 6.00000E+00
 -1        45 1.00000E+00 0.00000E+00 6.50000E+00
 -1        46 1.00000E+00 0.00000E+00 7.00000E+00
 -1        47 1.00000E+00 0.00000E+00 7.50000E+00
 -1        48 0.00000E+00 0.00000E+00 7.50000E+00
 -1        49 0.00000E+00 0.00000E+00 7.00000E+00
 -1        50 0.00000E+00 0.00000E+00 6.50000E+00
 -1        51 0.00000E+00 0.00000E+00 6.00000E+00
 -1        74 1.00000E+00 1.00000E+00 6.00000E+00
 -1        75 1.00000E+00 1.00000E+00 6.50000E+00
 -1        76 1.00000E+00 1.00000E+00 7.00000E+00
 -1        77 1.00000E+00 1.00000E+00 7.50000E+00
 -1        89 0.00000E+00 1.00000E+00 6.00000E+00
 -1        90 0.00000E+00 1.00000E+00 6.50000E+00
 -1        91 0.00000E+00 1.00000E+00 7.00000E+00
 -1        92 0.00000E+00 1.00000E+00 7.50000E+00
 -1        98 5.00000E-01 2.50000E-01 8.00000E+00
 -1        99 2.50000E-01 5.00000E-01 8.00000E+00
 -1       100 5.00000E-01 5.00000E-01 8.00000E+00
 -1       101 7.50000E-01 5.00000E-01 8.00000E+00
 -1       102 5.00000E-01 7.50000E-01 8.00000E+00
 -1       124 2.50000E-01 0.00000E+00 6.00000E+00
 -1       125 5.00000E-01 0.00000E+00 6.00000E+00
 -1       126 7.50000E-01 0.00000E+00 6.00000E+00
 -1       127 5.00000E-01 0.00000E+00 6.50000E+00
 -1       128 2.50000E-01 0.00000E+00 7.00000E+00
 -1       129 5.00000E-01 0.00000E+00 7.00000E+00
 -1       130 7.50000E-01 0.00000E+00 7.00000E+00
 -1       131 5.00000E-01 0.00000E+00 7.50000E+00
 -1       153 1.00000E+00 2.50000E-01 6.00000E+00
 -1       154 1.00000E+00 5.00000E-01 6.00000E+00
 -1       155 1.00000E+00 7.50000E-01 6.00000E+00
 -1       156 1.00000E+00 5.00000E-01 6.50000E+00
 -1       157 1.00000E+00 2.50000E-01 7.00000E+00
 -1       158 1.00000E+00 5.00000E-01 7.00000E+00
 -1       159 1.00000E+00 7.50000E-01 7.00000E+00
 -1       160 1.00000E+00 5.00000E-01 7.50000E+00
 -1       182 7.50000E-01 1.00000E+00 6.00000E+00
 -1       183 5.00000E-01 1.00000E+00 6.00000E+00
 -1       184 2.50000E-01 1.00000E+00 6.00000E+00
 -1       185 5.00000E-01 1.00000E+00 6.50000E+00
 -1       186 7.50000E-01 1.00000E+00 7.00000E+00
 -1       187 5.00000E-01 1.00000E+00 7.00000E+00
 -1       188 2.50000E-01 1.00000E+00 7.00000E+00
 -1       189 5.00000E-01 1.00000E+00 7.50000E+00
 -1       211 0.00000E+00 7.50000E-01 6.00000E+00
 -1       212 0.00000E+00 5.00000E-01 6.00000E+00
 -1       213 0.00000E+00 2.50000E-01 6.00000E+00
 -1       214 0.00000E+00 5.00000E-01 6.50000E+00
 -1       215 0.00000E+00 7.50000E-01 7.00000E+00
 -1       216 0.00000E+00 5.00000E-01 7.00000E+00
 -1       217 0.00000E+00 2.50000E-01 7.00000E+00
 -1       218 0.00000E+00 5.00000E-01 7.50000E+00
 -1       250 5.00000E-01 2.50000E-01 6.00000E+00
 -1       251 2.50000E-01 5.00000E-01 6.00000E+00
 -1       252 5.00000E-01 5.00000E-01 6.00000E+00
 -1       253 7.50000E-01 5.00000E-01 6.00000E+00
 -1       254 5.00000E-01 7.50000E-01 6.00000E+00
 -1       255 5.00000E-01 5.00000E-01 6.50000E+00
 -1       256 5.00000E-01 2.50000E-01 7.00000E+00
 -1       257 2.50000E-01 5.00000E-01 7.00000E+00
 -1       258 5.00000E-01 5.00000E-01 7.00000E+00
 -1       259 7.50000E-01 5.00000E-01 7.00000E+00
 -1       260 5.00000E-01 7.50000E-01 7.00000E+00
 -1       261 5.00000E-01 5.00000E-01 7.50000E+00
 -3
    3C                             8                                     1
 -1        25    4    0    1
 -2        51       125       252       212        49       129       258       216       124       250
 -2       251       213        50       127       255       214       128       256       257       217
 -1        26    4    0    1
 -2       125        44       154       252       129        46       158       258       126       153
 -2       253       250       127        45       156       255       130       157       259       256
 -1        27    4    0    1
 -2       212       252       183        89       216       258       187        91       251       254
 -2       184       211       214       255       185        90       257       260       188       215
 -1        28    4    0    1
 -2       252       154        74       183       258       158        76       187       253       155
 -2       182       254       255       156        75       185       259       159       186       260
 -1        29    4    0    1
 -2        49       129       258       216         5        22       100        31       128       256
 -2       257       217        48       131       261       218        21        98        99        32
 -1        30    4    0    1
 -2       129        46       158       258        22         6        25       100       130       157
 -2       259       256       131        47       160       261        23        24       101        98
 -1        31    4    0    1
 -2       216       258       187        91        31       100        28         8       257       260
 -2       188       215       218       261       189        92        99       102        29        30
 -1        32    4    0    1
 -2       258       158        76       187       100        25         7        28       259       159
 -2       186       260       261       160        77       189       101        26        27       102
 -3
    1PSTEP                         1           1           1          
  100CL  101 5.00000E-03          81                     1    1           1
 -4  DISP        4    1
 -5  D1          1    2    1    0
 -5  D2          1    2    2    0
 -5  D3          1    2    3    0
 -5  ALL         1    2    0    0    1ALL
 -1         5 0.00000E+00 0.00000E+00 0.00000E+00
 -1         6 0.00000E+00 0.00000E+00 0.00000E+00
 -1         7 0.00000E+00 0.00000E+00 0.00000E+00
 -1         8 0.00000E+00 0.00000E+00 0.00000E+00
 -1        21 0.00000E+00 0.00000E+00 0.00000E+00
 -1        22 0.00000E+00 0.00000E+00 0.00000E+00
 -1        23 0.00000E+00 0.00000E+00 0.00000E+00
 -1        24 0.00000E+00 0.00000E+00 0.00000E+00
 -1        25 0.00000E+00 0.00000E+00 0.00000E+00
 -1        26 0.00000E+00 0.00000E+00 0.00000E+00
 -1        27 0.00000E+00 0.00000E+00 0.00000E+00
 -1        28 0.00000E+00 0.00000E+00 0.00000E+00
 -1        29 0.00000E+00 0.00000E+00 0.00000E+00
 -1        30 0.00000E+00 0.00000E+00 0.00000E+00
 -1        31 0.00000E+00 0.00000E+00 0.00000E+00
 -1        32 0.00000E+00 0.00000E+00 0.00000E+00
 -1        44-5.92622E-05-3.46499E-03 4.48409E-04
 -1        45 5.67933E-05-2.56201E-03 7.85717E-04
 -1        46-4.79440E-05-1.79618E-03 9.49156E-04
 -1        47 1.30878E-04-6.75243E-04 5.43265E-04
 -1        48-1.30899E-04-6.75257E-04 5.43302E-04
 -1        49 4.78479E-05-1.79620E-03 9.49237E-04
 -1        50-5.69749E-05-2.56202E-03 7.85860E-04
 -1        51 5.88511E-05-3.46505E-03 4.48650E-04
 -1        74 3.16598E-04-4.40868E-03-4.94576E-04
 -1        75 1.89919E-04-2.97061E-03-7.84946E-04
 -1        76-1.09708E-04-1.59889E-03-9.50033E-04
 -1        77-2.07515E-04-5.27391E-04-5.58348E-04
 -1        89-3.16997E-04-4.40863E-03-4.94355E-04
 -1        90-1.90101E-04-2.97060E-03-7.84809E-04
 -1        91 1.09613E-04-1.59888E-03-9.49951E-04
 -1        92 2.07495E-04-5.27377E-04-5.58311E-04
 -1        98 0.00000E+00 0.00000E+00 0.00000E+00
 -1        99 0.00000E+00 0.00000E+00 0.00000E+00
 -1       100 0.00000E+00 0.00000E+00 0.00000E+00
 -1       101 0.00000E+00 0.00000E+00 0.00000E+00
 -1       102 0.00000E+00 0.00000E+00 0.00000E+00
 -1       124 1.49246E-04-2.96674E-03 4.29704E-04
 -1       125-1.63071E-07-3.58950E-03 4.48921E-04
 -1       126-1.49606E-04-2.96672E-03 4.29615E-04
 -1       127-1.02405E-07-2.56297E-03 9.03609E-04
 -1       128-9.16414E-06-1.95283E-03 9.48279E-04
 -1       129-3.33468E-08-1.81441E-03 9.41632E-04
 -1       130 9.08373E-06-1.95282E-03 9.48231E-04
 -1       131-7.20049E-09-7.36422E-04 5.56334E-04
 -1       153 6.90561E-05-3.63826E-03 1.91116E-04
 -1       154-1.20292E-04-2.50589E-03-2.08141E-05
 -1       155-6.42895E-05-3.88991E-03-2.38159E-04
 -1       156-1.20044E-04-2.78928E-03-6.44328E-05
 -1       157-2.04704E-05-1.50927E-03 3.92247E-04
 -1       158 8.82043E-05-1.56759E-03-2.94626E-05
 -1       159 4.65098E-05-1.47621E-03-4.11089E-04
 -1       160 3.97368E-05-6.56480E-04 4.85619E-06
 -1       182 1.14363E-04-2.56425E-03-4.71288E-04
 -1       183-1.59679E-07-4.35293E-03-4.76250E-04
 -1       184-1.14715E-04-2.56424E-03-4.71209E-04
 -1       185-1.03227E-07-2.83313E-03-8.73904E-04
 -1       186-4.39575E-05-2.16205E-03-9.82750E-04
 -1       187-3.30111E-08-1.83211E-03-9.63988E-04
 -1       188 4.38781E-05-2.16204E-03-9.82702E-04
 -1       189-7.18704E-09-7.20069E-04-5.64543E-04
 -1       211 6.38593E-05-3.88989E-03-2.37952E-04
 -1       212 1.19846E-04-2.50589E-03-2.05919E-05
 -1       213-6.94931E-05-3.63828E-03 1.91332E-04
 -1       214 1.19863E-04-2.78928E-03-6.42916E-05
 -1       215-4.66119E-05-1.47620E-03-4.11004E-04
 -1       216-8.83122E-05-1.56759E-03-2.93801E-05
 -1       217 2.03679E-05-1.50928E-03 3.92333E-04
 -1       218-3.97634E-05-6.56480E-04 4.88849E-06
 -1       250-1.65635E-07-4.08032E-03 1.74798E-04
 -1       251 2.98517E-05-2.57211E-03-1.02207E-05
 -1       252-1.65255E-07-3.12272E-03-1.51911E-05
 -1       253-3.02323E-05-2.57211E-03-1.02803E-05
 -1       254-1.63154E-07-4.41062E-03-2.53865E-04
 -1       255-1.09367E-07-2.60017E-03-3.19643E-05
 -1       256-3.40184E-08-1.60733E-03 3.95786E-04
 -1       257-4.10492E-05-1.74960E-03-1.19874E-05
 -1       258-3.33226E-08-1.78975E-03-1.45849E-05
 -1       259 4.09634E-05-1.74960E-03-1.20396E-05
 -1       260-3.40783E-08-1.62259E-03-4.18410E-04
 -1       261-1.10651E-08-7.17004E-04-1.97408E-06
 -3
    1PSTEP                         2           2           1          
  100CL  102 1.00000E-02          81                     1    2           1
 -4  DISP        4    1
 -5  D1          1    2    1    0
 -5  D2          1    2    2    0
 -5  D3          1    2    3    0
 -5  ALL         1    2    0    0    1ALL
 -1         5 0.00000E+00 0.00000E+00 0.00000E+00
 -1         6 0.00000E+00 0.00000E+00 0.00000E+00
 -1         7 0.00000E+00 0.00000E+00 0.00000E+00
 -1         8 0.00000E+00 0.00000E+00 0.00000E+00
 -1        21 0.00000E+00 0.00000E+00 0.00000E+00
 -1        22 0.00000E+00 0.00000E+00 0.00000E+00
 -1        23 0.00000E+00 0.00000E+00 0.00000E+00
 -1        24 0.00000E+00 0.00000E+00 0.00000E+00
 -1        25 0.00000E+00 0.00000E+00 0.00000E+00
 -1        26 0.00000E+00 0.00000E+00 0.00000E+00
 -1        27 0.00000E+00 0.00000E+00 0.00000E+00
 -1        28 0.00000E+00 0.00000E+00 0.00000E+00
 -1        29 0.00000E+00 0.00000E+00 0.00000E+00
 -1        30 0.00000E+00 0.00000E+00 0.00000E+00
 -1        31 0.00000E+00 0.00000E+00 0.00000E+00
 -1        32 0.00000E+00 0.00000E+00 0.00000E+00
 -1        44-1.58690E-04 1.59852E-03-2.33701E-04
 -1        45-3.98459E-05 1.24301E-03-3.77010E-04
 -1        46 4.36948E-05 9.16939E-04-4.32279E-04
 -1        47-5.26161E-05 3.71430E-04-2.84016E-04
 -1        48 5.26168E-05 3.71406E-04-2.83996E-04
 -1        49-4.36310E-05 9.16957E-04-4.32307E-04
 -1        50 3.97239E-05 1.24303E-03-3.77048E-04
 -1        51 1.58637E-04 1.59896E-03-2.33867E-04
 -1        74 1.40787E-04 1.61760E-03 2.34206E-04
 -1        75 2.94023E-05 1.25337E-03 3.77501E-04
 -1        76-3.89998E-05 9.12653E-04 4.32332E-04
 -1        77 5.55749E-05 3.68393E-04 2.83992E-04
 -1        89-1.41029E-04 1.61728E-03 2.34262E-04
 -1        90-2.95072E-05 1.25329E-03 3.77505E-04
 -1        91 3.90138E-05 9.12660E-04 4.32293E-04
 -1        92-5.55755E-05 3.68404E-04 2.83993E-04
 -1        98 0.00000E+00 0.00000E+00 0.00000E+00
 -1        99 0.00000E+00 0.00000E+00 0.00000E+00
 -1       100 0.00000E+00 0.00000E+00 0.00000E+00
 -1       101 0.00000E+00 0.00000E+00 0.00000E+00
 -1       102 0.00000E+00 0.00000E+00 0.00000E+00
 -1       124 9.93262E-06 1.48265E-03-2.20382E-04
 -1       125-1.60382E-07 1.76389E-03-2.31232E-04
 -1       126-1.00713E-05 1.48256E-03-2.20323E-04
 -1       127 8.82146E-09 1.30164E-03-4.18090E-04
 -1       128-4.81245E-06 9.58348E-04-4.63307E-04
 -1       129-4.07996E-08 8.89491E-04-4.72362E-04
 -1       130 4.79003E-06 9.58312E-04-4.63283E-04
 -1       131 7.79289E-09 3.75369E-04-2.75962E-04
 -1       153 1.27104E-04 1.91051E-03-1.03752E-04
 -1       154-3.19171E-06 1.69222E-03 2.66941E-07
 -1       155-1.20675E-04 1.92561E-03 1.04028E-04
 -1       156 3.54179E-07 1.40599E-03 1.23077E-06
 -1       157-2.52654E-05 7.94500E-04-1.85962E-04
 -1       158 3.75505E-07 8.09959E-04 4.33765E-07
 -1       159 2.37748E-05 7.91233E-04 1.85957E-04
 -1       160-1.27820E-07 3.08369E-04-5.70869E-09
 -1       182-4.12400E-06 1.47623E-03 2.20451E-04
 -1       183-1.50145E-07 1.77103E-03 2.31696E-04
 -1       184 3.91004E-06 1.47620E-03 2.20425E-04
 -1       185-1.32507E-08 1.30156E-03 4.16030E-04
 -1       186-1.44890E-06 9.60301E-04 4.63626E-04
 -1       187-3.56642E-08 8.89196E-04 4.71748E-04
 -1       188 1.40655E-06 9.60277E-04 4.63615E-04
 -1       189 2.16563E-09 3.75746E-04 2.75989E-04
 -1       211 1.20750E-04 1.92535E-03 1.03937E-04
 -1       212 3.39418E-06 1.69217E-03 1.62171E-07
 -1       213-1.26937E-04 1.91078E-03-1.03895E-04
 -1       214-3.83263E-07 1.40599E-03 1.23465E-06
 -1       215-2.37915E-05 7.91246E-04 1.85973E-04
 -1       216-3.85636E-07 8.09939E-04 4.60265E-07
 -1       217 2.52732E-05 7.94480E-04-1.85957E-04
 -1       218 1.18518E-07 3.08368E-04 6.82678E-10
 -1       250-1.96662E-08 1.91051E-03-1.02857E-04
 -1       251-3.95079E-06 1.20886E-03 4.28892E-08
 -1       252 1.49187E-07 1.54273E-03 4.34689E-08
 -1       253 4.15365E-06 1.20888E-03-3.85745E-08
 -1       254-1.80005E-08 1.90264E-03 1.03836E-04
 -1       255 1.38915E-08 1.37528E-03 8.68273E-08
 -1       256-1.99961E-08 7.82532E-04-2.07229E-04
 -1       257 1.07999E-06 9.13788E-04 1.87439E-08
 -1       258-6.23705E-09 8.11853E-04 7.90553E-08
 -1       259-1.07968E-06 9.13799E-04 3.47374E-08
 -1       260-1.60684E-08 7.84862E-04 2.07346E-04
 -1       261-1.26091E-08 3.48218E-04 1.26638E-08
 -3
    1PSTEP                         3           3           1          
  100CL  103 1.50000E-02          81                     1    3           1
 -4  DISP        4    1
 -5  D1          1    2    1    0
 -5  D2          1    2    2    0
 -5  D3          1    2    3    0
 -5  ALL         1    2    0    0    1ALL
 -1         5 0.00000E+00 0.00000E+00 0.00000E+00
 -1         6 0.00000E+00 0.00000E+00 0.00000E+00
 -1         7 0.00000E+00 0.00000E+00 0.00000E+00
 -1         8 0.00000E+00 0.00000E+00 0.00000E+00
 -1        21 0.00000E+00 0.00000E+00 0.00000E+00
 -1        22 0.00000E+00 0.00000E+00 0.00000E+00
 -1        23 0.00000E+00 0.00000E+00 0.00000E+00
 -1        24 0.00000E+00 0.00000E+00 0.00000E+00
 -1        25 0.00000E+00 0.00000E+00 0.00000E+00
 -1        26 0.00000E+00 0.00000E+00 0.00000E+00
 -1        27 0.00000E+00 0.00000E+00 0.00000E+00
 -1        28 0.00000E+00 0.00000E+00 0.00000E+00
 -1        29 0.00000E+00 0.00000E+00 0.00000E+00
 -1        30 0.00000E+00 0.00000E+00 0.00000E+00
 -1        31 0.00000E+00 0.00000E+00 0.00000E+00
 -1        32 0.00000E+00 0.00000E+00 0.00000E+00
 -1        44 1.20659E-04-1.27461E-03 1.85475E-04
 -1        45 2.76128E-05-9.89990E-04 2.98871E-04
 -1        46-3.30991E-05-7.24305E-04 3.42207E-04
 -1        47 4.27771E-05-2.93160E-04 2.25116E-04
 -1        48-4.27783E-05-2.93189E-04 2.25148E-04
 -1        49 3.31086E-05-7.24322E-04 3.42237E-04
 -1        50-2.77730E-05-9.89990E-04 2.98934E-04
 -1        51-1.20914E-04-1.27442E-03 1.85553E-04
 -1        74-1.20825E-04-1.27415E-03-1.85575E-04
 -1        75-2.77059E-05-9.89966E-04-2.99005E-04
 -1        76 3.25653E-05-7.23854E-04-3.42255E-04
 -1        77-4.28516E-05-2.93155E-04-2.25141E-04
 -1        89 1.20490E-04-1.27443E-03-1.85485E-04
 -1        90 2.74991E-05-9.90028E-04-2.98931E-04
 -1        91-3.25862E-05-7.23867E-04-3.42251E-04
 -1        92 4.28309E-05-2.93141E-04-2.25119E-04
 -1        98 0.00000E+00 0.00000E+00 0.00000E+00
 -1        99 0.00000E+00 0.00000E+00 0.00000E+00
 -1       100 0.00000E+00 0.00000E+00 0.00000E+00
 -1       101 0.00000E+00 0.00000E+00 0.00000E+00
 -1       102 0.00000E+00 0.00000E+00 0.00000E+00
 -1       124-2.70066E-06-1.17252E-03 1.74829E-04
 -1       125-1.83252E-07-1.40126E-03 1.83392E-04
 -1       126 2.42925E-06-1.17253E-03 1.74773E-04
 -1       127-3.73673E-08-1.03152E-03 3.30476E-04
 -1       128 2.43006E-06-7.59834E-04 3.67271E-04
 -1       129-3.48297E-08-7.04483E-04 3.74317E-04
 -1       130-2.46888E-06-7.59843E-04 3.67260E-04
 -1       131 6.05396E-09-2.97528E-04 2.18718E-04
 -1       153-1.00252E-04-1.52194E-03 8.23175E-05
 -1       154 8.92688E-08-1.34664E-03-6.34066E-08
 -1       155 9.98720E-05-1.51827E-03-8.24269E-05
 -1       156-1.34340E-09-1.11518E-03-5.81730E-08
 -1       157 2.00994E-05-6.28103E-04 1.47328E-04
 -1       158 7.25256E-08-6.41531E-04-3.53056E-08
 -1       159-2.01009E-05-6.28688E-04-1.47384E-04
 -1       160-4.25637E-08-2.43852E-04-2.34111E-08
 -1       182-6.14839E-06-1.17261E-03-1.74775E-04
 -1       183-2.31210E-07-1.40111E-03-1.83480E-04
 -1       184 5.78854E-06-1.17267E-03-1.74802E-04
 -1       185-7.25828E-08-1.03132E-03-3.30500E-04
 -1       186 2.96795E-06-7.59848E-04-3.67290E-04
 -1       187-5.21252E-08-7.04957E-04-3.74295E-04
 -1       188-3.03881E-06-7.59873E-04-3.67277E-04
 -1       189-2.13577E-09-2.97557E-04-2.18691E-04
 -1       211-1.00099E-04-1.51849E-03-8.23742E-05
 -1       212-3.28068E-07-1.34669E-03 8.48521E-08
 -1       213 1.00063E-04-1.52182E-03 8.24038E-05
 -1       214-7.81443E-08-1.11520E-03 4.40794E-08
 -1       215 2.00308E-05-6.28689E-04-1.47333E-04
 -1       216-1.65599E-07-6.41550E-04 2.10264E-08
 -1       217-2.01541E-05-6.28134E-04 1.47381E-04
 -1       218 2.89008E-08-2.43860E-04-1.20953E-08
 -1       250-8.34122E-08-1.51143E-03 8.18317E-05
 -1       251-1.79844E-06-9.57421E-04 7.80852E-09
 -1       252 3.80689E-08-1.22343E-03-5.08482E-08
 -1       253 1.69426E-06-9.57396E-04-6.18934E-08
 -1       254-1.07742E-07-1.51477E-03-8.18781E-05
 -1       255-6.17570E-08-1.09062E-03 2.37237E-09
 -1       256-1.77651E-08-6.20672E-04 1.64324E-04
 -1       257 2.84778E-07-7.24645E-04 1.15445E-08
 -1       258-5.64412E-09-6.42808E-04-1.21582E-09
 -1       259-3.28315E-07-7.24636E-04-1.82928E-08
 -1       260-2.67092E-08-6.20142E-04-1.64333E-04
 -1       261-1.55573E-08-2.75878E-04 2.58634E-09
 -3
    1PSTEP                         4           4           1          
  100CL  104 2.00000E-02          81                     1    4           1
 -4  DISP        4    1
 -5  D1          1    2    1    0
 -5  D2          1    2    2    0
 -5  D3          1    2    3    0
 -5  ALL         1    2    0    0    1ALL
 -1         5 0.00000E+00 0.00000E+00 0.00000E+00
 -1         6 0.00000E+00 0.00000E+00 0.00000E+00
 -1         7 0.00000E+00 0.00000E+00 0.00000E+00
 -1         8 0.00000E+00 0.00000E+00 0.00000E+00
 -1        21 0.00000E+00 0.00000E+00 0.00000E+00
 -1        22 0.00000E+00 0.00000E+00 0.00000E+00
 -1        23 0.00000E+00 0.00000E+00 0.00000E+00
 -1        24 0.00000E+00 0.00000E+00 0.00000E+00
 -1        25 0.00000E+00 0.00000E+00 0.00000E+00
 -1        26 0.00000E+00 0.00000E+00 0.00000E+00
 -1        27 0.00000E+00 0.00000E+00 0.00000E+00
 -1        28 0.00000E+00 0.00000E+00 0.00000E+00
 -1        29 0.00000E+00 0.00000E+00 0.00000E+00
 -1        30 0.00000E+00 0.00000E+00 0.00000E+00
 -1        31 0.00000E+00 0.00000E+00 0.00000E+00
 -1        32 0.00000E+00 0.00000E+00 0.00000E+00
 -1        44-1.01537E-04 9.81588E-04-1.44007E-04
 -1        45-2.52124E-05 7.64265E-04-2.32114E-04
 -1        46 2.74052E-05 5.64237E-04-2.65444E-04
 -1        47-3.20587E-05 2.28900E-04-1.74880E-04
 -1        48 3.20517E-05 2.28885E-04-1.74861E-04
 -1        49-2.73989E-05 5.64234E-04-2.65431E-04
 -1        50 2.51180E-05 7.64259E-04-2.32080E-04
 -1        51 1.01434E-04 9.81702E-04-1.43992E-04
 -1        74 9.18142E-05 9.90138E-04 1.44032E-04
 -1        75 1.98445E-05 7.69265E-04 2.32204E-04
 -1        76-2.51442E-05 5.62137E-04 2.65421E-04
 -1        77 3.35463E-05 2.27510E-04 1.74834E-04
 -1        89-9.19889E-05 9.89951E-04 1.44018E-04
 -1        90-1.99501E-05 7.69246E-04 2.32210E-04
 -1        91 2.51220E-05 5.62131E-04 2.65453E-04
 -1        92-3.35573E-05 2.27514E-04 1.74854E-04
 -1        98 0.00000E+00 0.00000E+00 0.00000E+00
 -1        99 0.00000E+00 0.00000E+00 0.00000E+00
 -1       100 0.00000E+00 0.00000E+00 0.00000E+00
 -1       101 0.00000E+00 0.00000E+00 0.00000E+00
 -1       102 0.00000E+00 0.00000E+00 0.00000E+00
 -1       124 7.50577E-06 9.12611E-04-1.35757E-04
 -1       125-1.10508E-07 1.08512E-03-1.42458E-04
 -1       126-7.65019E-06 9.12601E-04-1.35764E-04
 -1       127-1.73143E-08 8.01205E-04-2.57008E-04
 -1       128-3.15401E-06 5.89150E-04-2.85003E-04
 -1       129-2.77925E-08 5.46919E-04-2.90865E-04
 -1       130 3.12528E-06 5.89141E-04-2.85009E-04
 -1       131 1.74727E-09 2.30817E-04-1.69696E-04
 -1       153 8.09613E-05 1.17778E-03-6.40363E-05
 -1       154-2.12144E-06 1.04857E-03-2.09630E-08
 -1       155-7.75350E-05 1.18532E-03 6.39488E-05
 -1       156-7.57225E-08 8.65109E-04 5.17863E-07
 -1       157-1.63243E-05 4.89212E-04-1.14289E-04
 -1       158 3.92316E-07 4.98772E-04 1.74972E-07
 -1       159 1.55294E-05 4.87466E-04 1.14198E-04
 -1       160 8.64057E-09 1.89241E-04 7.25054E-09
 -1       182-4.29539E-07 9.09811E-04 1.35663E-04
 -1       183-9.54010E-08 1.08749E-03 1.42536E-04
 -1       184 2.63116E-07 9.09752E-04 1.35657E-04
 -1       185-3.87116E-08 8.00515E-04 2.55881E-04
 -1       186-1.36424E-06 5.89729E-04 2.85075E-04
 -1       187-2.48673E-08 5.46639E-04 2.90443E-04
 -1       188 1.32441E-06 5.89718E-04 2.85088E-04
 -1       189-3.37187E-09 2.31025E-04 1.69680E-04
 -1       211 7.74606E-05 1.18518E-03 6.39893E-05
 -1       212 2.08069E-06 1.04852E-03-3.58935E-08
 -1       213-8.10053E-05 1.17783E-03-6.40407E-05
 -1       214 6.30773E-09 8.65094E-04 5.50308E-07
 -1       215-1.55646E-05 4.87463E-04 1.14221E-04
 -1       216-4.24878E-07 4.98760E-04 2.10379E-07
 -1       217 1.63049E-05 4.89199E-04-1.14264E-04
 -1       218-2.08450E-08 1.89238E-04 2.46028E-08
 -1       250-6.53916E-08 1.17372E-03-6.34543E-05
 -1       251-2.16113E-06 7.43057E-04-5.60174E-08
 -1       252-4.53739E-09 9.47774E-04-8.33896E-08
 -1       253 2.12266E-06 7.43088E-04-8.66685E-08
 -1       254-5.25570E-08 1.16875E-03 6.36993E-05
 -1       255-2.53120E-08 8.47246E-04-4.80565E-08
 -1       256-2.06668E-08 4.80874E-04-1.27674E-04
 -1       257 4.82221E-07 5.62649E-04-1.56789E-08
 -1       258-1.62182E-08 4.98193E-04 1.06478E-08
 -1       259-5.10702E-07 5.62655E-04-2.49806E-08
 -1       260-2.00577E-08 4.82077E-04 1.27677E-04
 -1       261-7.30361E-09 2.14096E-04 3.01479E-09
 -3
    1PSTEP                         5           5           1          
  100CL  105 2.50000E-02          81                     1    5           1
 -4  DISP        4    1
 -5  D1          1    2    1    0
 -5  D2          1    2    2    0
 -5  D3          1    2    3    0
 -5  ALL         1    2    0    0    1ALL
 -1         5 0.00000E+00 0.00000E+00 0.00000E+00
 -1         6 0.00000E+00 0.00000E+00 0.00000E+00
 -1         7 0.00000E+00 0.00000E+00 0.00000E+00
 -1         8 0.00000E+00 0.00000E+00 0.00000E+00
 -1        21 0.00000E+00 0.00000E+00 0.00000E+00
 -1        22 0.00000E+00 0.00000E+00 0.00000E+00
 -1        23 0.00000E+00 0.00000E+00 0.00000E+00
 -1        24 0.00000E+00 0.00000E+00 0.00000E+00
 -1        25 0.00000E+00 0.00000E+00 0.00000E+00
 -1        26 0.00000E+00 0.00000E+00 0.00000E+00
 -1        27 0.00000E+00 0.00000E+00 0.00000E+00
 -1        28 0.00000E+00 0.00000E+00 0.00000E+00
 -1        29 0.00000E+00 0.00000E+00 0.00000E+00
 -1        30 0.00000E+00 0.00000E+00 0.00000E+00
 -1        31 0.00000E+00 0.00000E+00 0.00000E+00
 -1        32 0.00000E+00 0.00000E+00 0.00000E+00
 -1        44 7.21928E-05-7.45419E-04 1.08694E-04
 -1        45 1.69951E-05-5.79329E-04 1.75114E-04
 -1        46-1.96685E-05-4.24750E-04 2.00569E-04
 -1        47 2.48432E-05-1.72025E-04 1.31958E-04
 -1        48-2.48447E-05-1.72030E-04 1.31943E-04
 -1        49 1.96621E-05-4.24741E-04 2.00534E-04
 -1        50-1.69983E-05-5.79323E-04 1.75150E-04
 -1        51-7.22212E-05-7.45381E-04 1.08712E-04
 -1        74-7.07324E-05-7.46941E-04-1.08765E-04
 -1        75-1.61206E-05-5.80200E-04-1.75197E-04
 -1        76 1.92866E-05-4.24373E-04-2.00545E-04
 -1        77-2.50923E-05-1.71786E-04-1.31945E-04
 -1        89 7.06579E-05-7.47023E-04-1.08747E-04
 -1        90 1.61171E-05-5.80184E-04-1.75161E-04
 -1        91-1.92952E-05-4.24393E-04-2.00560E-04
 -1        92 2.50920E-05-1.71781E-04-1.31951E-04
 -1        98 0.00000E+00 0.00000E+00 0.00000E+00
 -1        99 0.00000E+00 0.00000E+00 0.00000E+00
 -1       100 0.00000E+00 0.00000E+00 0.00000E+00
 -1       101 0.00000E+00 0.00000E+00 0.00000E+00
 -1       102 0.00000E+00 0.00000E+00 0.00000E+00
 -1       124-3.08355E-06-6.87417E-04 1.02401E-04
 -1       125-1.19204E-08-8.20870E-04 1.07466E-04
 -1       126 3.05920E-06-6.87433E-04 1.02463E-04
 -1       127-1.52401E-08-6.04610E-04 1.93810E-04
 -1       128 1.75932E-06-4.45192E-04 2.15206E-04
 -1       129 1.48877E-09-4.12871E-04 2.19393E-04
 -1       130-1.76098E-06-4.45198E-04 2.15209E-04
 -1       131-5.44494E-10-1.74304E-04 1.28155E-04
 -1       153-5.91799E-05-8.90147E-04 4.82997E-05
 -1       154 2.70358E-07-7.88735E-04-9.41697E-08
 -1       155 5.85698E-05-8.91547E-04-4.83135E-05
 -1       156-1.89094E-08-6.53216E-04-1.08644E-07
 -1       157 1.18504E-05-3.68503E-04 8.63373E-05
 -1       158-5.97178E-08-3.76168E-04-3.16132E-08
 -1       159-1.17471E-05-3.68178E-04-8.63422E-05
 -1       160 3.98848E-09-1.42982E-04-1.95843E-09
 -1       182-1.73891E-06-6.86931E-04-1.02458E-04
 -1       183-2.26316E-08-8.21520E-04-1.07547E-04
 -1       184 1.68387E-06-6.86972E-04-1.02487E-04
 -1       185-1.27042E-08-6.04555E-04-1.93647E-04
 -1       186 1.44337E-06-4.45314E-04-2.15232E-04
 -1       187 3.62111E-09-4.12783E-04-2.19340E-04
 -1       188-1.44434E-06-4.45325E-04-2.15231E-04
 -1       189-4.70740E-10-1.74318E-04-1.28154E-04
 -1       211-5.86210E-05-8.91583E-04-4.82888E-05
 -1       212-2.96427E-07-7.88719E-04 2.81205E-08
 -1       213 5.91620E-05-8.90116E-04 4.82430E-05
 -1       214 7.19046E-09-6.53232E-04-8.32148E-08
 -1       215 1.17388E-05-3.68180E-04-8.63349E-05
 -1       216 5.26986E-08-3.76158E-04-3.02913E-08
 -1       217-1.18590E-05-3.68497E-04 8.63507E-05
 -1       218-4.45540E-09-1.42983E-04-2.44736E-09
 -1       250-7.39414E-10-8.86402E-04 4.79422E-05
 -1       251 4.14524E-07-5.61261E-04 5.83490E-08
 -1       252 7.91583E-09-7.16174E-04-2.19353E-09
 -1       253-4.23257E-07-5.61273E-04-3.49068E-08
 -1       254-5.56143E-09-8.85614E-04-4.80207E-05
 -1       255-1.26792E-09-6.38935E-04-2.27061E-10
 -1       256-6.21667E-10-3.63513E-04 9.63106E-05
 -1       257-9.72878E-08-4.24578E-04-5.92170E-09
 -1       258-2.46700E-09-3.76764E-04-3.39074E-09
 -1       259 9.22758E-08-4.24582E-04 6.79419E-10
 -1       260 5.84338E-10-3.63712E-04-9.63222E-05
 -1       261-9.84612E-10-1.61724E-04-5.16369E-10
 -3
    1PSTEP                         6           6           1          
  100CL  106 3.00000E-02          81                     1    6           1
 -4  DISP        4    1
 -5  D1          1    2    1    0
 -5  D2          1    2    2    0
 -5  D3          1    2    3    0
 -5  ALL         1    2    0    0    1ALL
 -1         5 0.00000E+00 0.00000E+00 0.00000E+00
 -1         6 0.00000E+00 0.00000E+00 0.00000E+00
 -1         7 0.00000E+00 0.00000E+00 0.00000E+00
 -1         8 0.00000E+00 0.00000E+00 0.00000E+00
 -1        21 0.00000E+00 0.00000E+00 0.00000E+00
 -1        22 0.00000E+00 0.00000E+00 0.00000E+00
 -1        23 0.00000E+00 0.00000E+00 0.00000E+00
 -1        24 0.00000E+00 0.00000E+00 0.00000E+00
 -1        25 0.00000E+00 0.00000E+00 0.00000E+00
 -1        26 0.00000E+00 0.00000E+00 0.00000E+00
 -1        27 0.00000E+00 0.00000E+00 0.00000E+00
 -1        28 0.00000E+00 0.00000E+00 0.00000E+00
 -1        29 0.00000E+00 0.00000E+00 0.00000E+00
 -1        30 0.00000E+00 0.00000E+00 0.00000E+00
 -1        31 0.00000E+00 0.00000E+00 0.00000E+00
 -1        32 0.00000E+00 0.00000E+00 0.00000E+00
 -1        44-5.63891E-05 5.36530E-04-7.88460E-05
 -1        45-1.39689E-05 4.17928E-04-1.27127E-04
 -1        46 1.52312E-05 3.09221E-04-1.45193E-04
 -1        47-1.74535E-05 1.25464E-04-9.57534E-05