    1C
    1UUSER                                                              
    1UDATE              12.july.2018                                    
    1UTIME              13:03:52                                        
    1UHOST                                                              
    1UPGM               CalculiX                                        
    1UVERSION           Version 2.13                             
    1UCOMPILETIME       jue jun 14 00:40:39 CEST 2018                    
    1UDIR                                                               
    1UDBN                                                               
    1UMAT    1EL                                                        
    2C                            81                                     1
 -1         5 0.00000E+00 0.00000E+00 8.00000E+00
 -1         6 1.00000E+00 0.00000E+00 8.00000E+00
 -1         7 1.00000E+00 1.00000E+00 8.00000E+00
 -1         8 0.00000E+00 1.00000E+00 8.00000E+00
 -1        21 2.50000E-01 0.00000E+00 8.00000E+00
 -1        22 5.00000E-01 0.00000E+00 8.00000E+00
 -1        23 7.50000E-01 0.00000E+00 8.00000E+00
 -1        24 1.00000E+00 2.50000E-01 8.00000E+00
 -1        25 1.00000E+00 5.00000E-01 8.00000E+00
 -1        26 1.00000E+00 7.50000E-01 8.00000E+00
 -1        27 7.50000E-01 1.00000E+00 8.00000E+00
 -1        28 5.00000E-01 1.00000E+00 8.00000E+00
 -1        29 2.50000E-01 1.00000E+00 8.00000E+00
 -1        30 0.00000E+00 7.50000E-01 8.00000E+00
 -1        31 0.00000E+00 5.00000E-01 8.00000E+00
 -1        32 0.00000E+00 2.50000E-01 8.00000E+00
 -1        44 1.00000E+00 0.00000E+00 6.00000E+00
 -1        45 1.00000E+00 0.00000E+00 6.50000E+00
 -1        46 1.00000E+00 0.00000E+00 7.00000E+00
 -1        47 1.00000E+00 0.00000E+00 7.50000E+00
 -1        48 0.00000E+00 0.00000E+00 7.50000E+00
 -1        49 0.00000E+00 0.00000E+00 7.00000E+00
 -1        50 0.00000E+00 0.00000E+00 6.50000E+00
 -1        51 0.00000E+00 0.00000E+00 6.00000E+00
 -1        74 1.00000E+00 1.00000E+00 6.00000E+00
 -1        75 1.00000E+00 1.00000E+00 6.50000E+00
 -1        76 1.00000E+00 1.00000E+00 7.00000E+00
 -1        77 1.00000E+00 1.00000E+00 7.50000E+00
 -1        89 0.00000E+00 1.00000E+00 6.00000E+00
 -1        90 0.00000E+00 1.00000E+00 6.50000E+00
 -1        91 0.00000E+00 1.00000E+00 7.00000E+00
 -1        92 0.00000E+00 1.00000E+00 7.50000E+00
 -1        98 5.00000E-01 2.50000E-01 8.00000E+00
 -1        99 2.50000E-01 5.00000E-01 8.00000E+00
 -1       100 5.00000E-01 5.00000E-01 8.00000E+00
 -1       101 7.50000E-01 5.00000E-01 8.00000E+00
 -1       102 5.00000E-01 7.50000E-01 8.00000E+00
 -1       124 2.50000E-01 0.00000E+00 6.00000E+00
 -1       125 5.00000E-01 0.00000E+00 6.00000E+00
 -1       126 7.50000E-01 0.00000E+00 6.00000E+00
 -1       127 5.00000E-01 0.00000E+00 6.50000E+00
 -1       128 2.50000E-01 0.00000E+00 7.00000E+00
 -1       129 5.00000E-01 0.00000E+00 7.00000E+00
 -1       130 7.50000E-01 0.00000E+00 7.00000E+00
 -1       131 5.00000E-01 0.00000E+00 7.50000E+00
 -1       153 1.00000E+00 2.50000E-01 6.00000E+00
 -1       154 1.00000E+00 5.00000E-01 6.00000E+00
 -1       155 1.00000E+00 7.50000E-01 6.00000E+00
 -1       156 1.00000E+00 5.00000E-01 6.50000E+00
 -1       157 1.00000E+00 2.50000E-01 7.00000E+00
 -1       158 1.00000E+00 5.00000E-01 7.00000E+00
 -1       159 1.00000E+00 7.50000E-01 7.00000E+00
 -1       160 1.00000E+00 5.00000E-01 7.50000E+00
 -1       182 7.50000E-01 1.00000E+00 6.00000E+00
 -1       183 5.00000E-01 1.00000E+00 6.00000E+00
 -1       184 2.50000E-01 1.00000E+00 6.00000E+00
 -1       185 5.00000E-01 1.00000E+00 6.50000E+00
 -1       186 7.50000E-01 1.00000E+00 7.00000E+00
 -1       187 5.00000E-01 1.00000E+00 7.00000E+00
 -1       188 2.50000E-01 1.00000E+00 7.00000E+00
 -1       189 5.00000E-01 1.00000E+00 7.50000E+00
 -1       211 0.00000E+00 7.50000E-01 6.00000E+00
 -1       212 0.00000E+00 5.00000E-01 6.00000E+00
 -1       213 0.00000E+00 2.50000E-01 6.00000E+00
 -1       214 0.00000E+00 5.00000E-01 6.50000E+00
 -1       215 0.00000E+00 7.50000E-01 7.00000E+00
 -1       216 0.00000E+00 5.00000E-01 7.00000E+00
 -1       217 0.00000E+00 2.50000E-01 7.00000E+00
 -1       218 0.00000E+00 5.00000E-01 7.50000E+00
 -1       250 5.00000E-01 2.50000E-01 6.00000E+00
 -1       251 2.50000E-01 5.00000E-01 6.00000E+00
 -1       252 5.00000E-01 5.00000E-01 6.00000E+00
 -1       253 7.50000E-01 5.00000E-01 6.00000E+00
 -1       254 5.00000E-01 7.50000E-01 6.00000E+00
 -1       255 5.00000E-01 5.00000E-01 6.50000E+00
 -1       256 5.00000E-01 2.50000E-01 7.00000E+00
 -1       257 2.50000E-01 5.00000E-01 7.00000E+00
 -1       258 5.00000E-01 5.00000E-01 7.00000E+00
 -1       259 7.50000E-01 5.00000E-01 7.00000E+00
 -1       260 5.00000E-01 7.50000E-01 7.00000E+00
 -1       261 5.00000E-01 5.00000E-01 7.50000E+00
 -3
    3C                             8                                     1
 -1        25    4    0    1
 -2        51       125       252       212        49       129       258       216       124       250
 -2       251       213        50       127       255       214       128       256       257       217
 -1        26    4    0    1
 -2       125        44       154       252       129        46       158       258       126       153
 -2       253       250       127        45       156       255       130       157       259       256
 -1        27    4    0    1
 -2       212       252       183        89       216       258       187        91       251       254
 -2       184       211       214       255       185        90       257       260       188       215
 -1        28    4    0    1
 -2       252       154        74       183       258       158        76       187       253       155
 -2       182       254       255       156        75       185       259       159       186       260
 -1        29    4    0    1
 -2        49       129       258       216         5        22       100        31       128       256
 -2       257       217        48       131       261       218        21        98        99        32
 -1        30    4    0    1
 -2       129        46       158       258        22         6        25       100       130       157
 -2       259       256       131        47       160       261        23        24       101        98
 -1        31    4    0    1
 -2       216       258       187        91        31       100        28         8       257       260
 -2       188       215       218       261       189        92        99       102        29        30
 -1        32    4    0    1
 -2       258       158        76       187       100        25         7        28       259       159
 -2       186       260       261       160        77       189       101        26        27       102
 -3
    1PSTEP                         1           1           1          
  100CL  101 5.00000E-02          81                     1    1           1
 -4  DISP        4    1
 -5  D1          1    2    1    0
 -5  D2          1    2    2    0
 -5  D3          1    2    3    0
 -5  ALL         1    2    0    0    1ALL
 -1         5 0.00000E+00 0.00000E+00 0.00000E+00
 -1         6 0.00000E+00 0.00000E+00 0.00000E+00
 -1         7 0.00000E+00 0.00000E+00 0.00000E+00
 -1         8 0.00000E+00 0.00000E+00 0.00000E+00
 -1        21 0.00000E+00 0.00000E+00 0.00000E+00
 -1        22 0.00000E+00 0.00000E+00 0.00000E+00
 -1        23 0.00000E+00 0.00000E+00 0.00000E+00
 -1        24 0.00000E+00 0.00000E+00 0.00000E+00
 -1        25 0.00000E+00 0.00000E+00 0.00000E+00
 -1        26 0.00000E+00 0.00000E+00 0.00000E+00
 -1        27 0.00000E+00 0.00000E+00 0.00000E+00
 -1        28 0.00000E+00 0.00000E+00 0.00000E+00
 -1        29 0.00000E+00 0.00000E+00 0.00000E+00
 -1        30 0.00000E+00 0.00000E+00 0.00000E+00
 -1        31 0.00000E+00 0.00000E+00 0.00000E+00
 -1        32 0.00000E+00 0.00000E+00 0.00000E+00
 -1        44 1.54164E-04-2.02148E-03 2.88821E-04
 -1        45 4.22850E-05-1.55757E-03 4.71453E-04
 -1        46-4.81359E-05-1.13230E-03 5.44702E-04
 -1        47 6.92055E-05-4.53482E-04 3.50500E-04
 -1        48-6.92086E-05-4.53480E-04 3.50502E-04
 -1        49 4.81260E-05-1.13229E-03 5.44706E-04
 -1        50-4.22977E-05-1.55757E-03 4.71457E-04
 -1        51-1.54198E-04-2.02146E-03 2.88826E-04
 -1        74-1.27531E-04-2.11169E-03-2.93222E-04
 -1        75-1.78742E-05-1.59697E-03-4.71501E-04
 -1        76 3.28643E-05-1.11350E-03-5.44839E-04
 -1        77-7.67774E-05-4.39307E-04-3.51919E-04
 -1        89 1.27538E-04-2.11167E-03-2.93216E-04
 -1        90 1.78697E-05-1.59697E-03-4.71495E-04
 -1        91-3.28619E-05-1.11350E-03-5.44836E-04
 -1        92 7.67783E-05-4.39304E-04-3.51917E-04
 -1        98 0.00000E+00 0.00000E+00 0.00000E+00
 -1        99 0.00000E+00 0.00000E+00 0.00000E+00
 -1       100 0.00000E+00 0.00000E+00 0.00000E+00
 -1       101 0.00000E+00 0.00000E+00 0.00000E+00
 -1       102 0.00000E+00 0.00000E+00 0.00000E+00
 -1       124 7.82025E-06-1.83846E-03 2.72764E-04
 -1       125-1.06553E-08-2.20113E-03 2.86051E-04
 -1       126-7.84773E-06-1.83848E-03 2.72768E-04
 -1       127-9.26846E-09-1.61295E-03 5.24527E-04
 -1       128 2.94747E-06-1.19465E-03 5.77661E-04
 -1       129-2.62717E-09-1.10817E-03 5.86294E-04
 -1       130-2.95500E-06-1.19466E-03 5.77658E-04
 -1       131-1.62736E-09-4.65100E-04 3.43289E-04
 -1       153-1.25419E-04-2.36200E-03 1.27490E-04
 -1       154-1.05679E-05-2.02260E-03-1.98179E-06
 -1       155 1.24905E-04-2.38788E-03-1.31957E-04
 -1       156-1.11243E-05-1.74511E-03-6.19975E-06
 -1       157 2.44430E-05-9.78095E-04 2.32956E-04
 -1       158 8.09940E-06-1.00104E-03-2.80361E-06
 -1       159-2.17355E-05-9.74542E-04-2.34725E-04
 -1       160 3.70145E-06-3.86559E-04 4.59624E-07
 -1       182 7.12876E-06-1.80030E-03-2.76713E-04
 -1       183-3.34383E-09-2.27302E-03-2.88738E-04
 -1       184-7.12849E-06-1.80028E-03-2.76702E-04
 -1       185 1.26395E-09-1.63804E-03-5.21578E-04
 -1       186-8.49569E-07-1.21453E-03-5.80952E-04
 -1       187-1.26167E-09-1.11009E-03-5.88319E-04
 -1       188 8.49567E-07-1.21453E-03-5.80952E-04
 -1       189 8.33641E-10-4.63748E-04-3.44081E-04
 -1       211-1.24906E-04-2.38786E-03-1.31959E-04
 -1       212 1.05551E-05-2.02259E-03-1.97621E-06
 -1       213 1.25395E-04-2.36199E-03 1.27504E-04
 -1       214 1.11151E-05-1.74510E-03-6.19493E-06
 -1       215 2.17347E-05-9.74538E-04-2.34720E-04
 -1       216-8.10310E-06-1.00104E-03-2.79995E-06
 -1       217-2.44498E-05-9.78092E-04 2.32958E-04
 -1       218-3.70290E-06-3.86557E-04 4.61558E-07
 -1       250-8.69094E-09-2.39691E-03 1.25159E-04
 -1       251 3.51778E-06-1.51605E-03-9.92588E-07
 -1       252-7.79470E-09-1.92031E-03-1.54156E-06
 -1       253-3.53192E-06-1.51606E-03-9.96501E-07
 -1       254-6.22909E-09-2.42612E-03-1.32774E-04
 -1       255-3.95756E-09-1.69455E-03-3.02670E-06
 -1       256-2.60392E-09-9.76635E-04 2.55692E-04
 -1       257-4.00079E-06-1.12817E-03-1.14150E-06
 -1       258-2.26335E-09-1.02411E-03-1.38466E-06
 -1       259 3.99673E-06-1.12817E-03-1.14304E-06
 -1       260-1.66722E-09-9.78611E-04-2.57856E-04
 -1       261-4.75830E-10-4.34604E-04-1.72907E-07
 -3
    1PSTEP                         2           2           1          
  100CL  102 1.00000E-01          81                     1    2           1
 -4  DISP        4    1
 -5  D1          1    2    1    0
 -5  D2          1    2    2    0
 -5  D3          1    2    3    0
 -5  ALL         1    2    0    0    1ALL
 -1         5 0.00000E+00 0.00000E+00 0.00000E+00
 -1         6 0.00000E+00 0.00000E+00 0.00000E+00
 -1         7 0.00000E+00 0.00000E+00 0.00000E+00
 -1         8 0.00000E+00 0.00000E+00 0.00000E+00
 -1        21 0.00000E+00 0.00000E+00 0.00000E+00
 -1        22 0.00000E+00 0.00000E+00 0.00000E+00
 -1        23 0.00000E+00 0.00000E+00 0.00000E+00
 -1        24 0.00000E+00 0.00000E+00 0.00000E+00
 -1        25 0.00000E+00 0.00000E+00 0.00000E+00
 -1        26 0.00000E+00 0.00000E+00 0.00000E+00
 -1        27 0.00000E+00 0.00000E+00 0.00000E+00
 -1        28 0.00000E+00 0.00000E+00 0.00000E+00
 -1        29 0.00000E+00 0.00000E+00 0.00000E+00
 -1        30 0.00000E+00 0.00000E+00 0.00000E+00
 -1        31 0.00000E+00 0.00000E+00 0.00000E+00
 -1        32 0.00000E+00 0.00000E+00 0.00000E+00
 -1        44-1.50214E-04 1.61004E-03-2.33920E-04
 -1        45-3.47768E-05 1.24993E-03-3.77280E-04
 -1        46 4.12924E-05 9.13532E-04-4.32325E-04
 -1        47-5.41390E-05 3.69605E-04-2.83981E-04
 -1        48 5.41408E-05 3.69603E-04-2.83982E-04
 -1        49-4.12907E-05 9.13530E-04-4.32328E-04
 -1        50 3.47864E-05 1.24993E-03-3.77279E-04
 -1        51 1.50226E-04 1.61004E-03-2.33924E-04
 -1        74 1.49351E-04 1.61410E-03 2.34162E-04
 -1        75 3.38254E-05 1.25164E-03 3.77290E-04
 -1        76-4.05767E-05 9.12656E-04 4.32341E-04
 -1        77 5.44490E-05 3.68964E-04 2.84056E-04
 -1        89-1.49357E-04 1.61410E-03 2.34168E-04
 -1        90-3.38292E-05 1.25163E-03 3.77293E-04
 -1        91 4.05717E-05 9.12653E-04 4.32340E-04
 -1        92-5.44511E-05 3.68961E-04 2.84056E-04
 -1        98 0.00000E+00 0.00000E+00 0.00000E+00
 -1        99 0.00000E+00 0.00000E+00 0.00000E+00
 -1       100 0.00000E+00 0.00000E+00 0.00000E+00
 -1       101 0.00000E+00 0.00000E+00 0.00000E+00
 -1       102 0.00000E+00 0.00000E+00 0.00000E+00
 -1       124 4.20224E-06 1.47932E-03-2.20449E-04
 -1       125 9.55160E-09 1.76886E-03-2.31313E-04
 -1       126-4.18749E-06 1.47932E-03-2.20444E-04
 -1       127 2.00733E-09 1.30145E-03-4.17296E-04
 -1       128-3.31198E-06 9.59232E-04-4.63534E-04
 -1       129 3.20677E-09 8.89470E-04-4.72259E-04
 -1       130 3.31626E-06 9.59234E-04-4.63534E-04
 -1       131 6.54459E-10 3.75437E-04-2.76045E-04
 -1       153 1.24318E-04 1.91695E-03-1.03858E-04
 -1       154 6.06647E-07 1.69322E-03 1.03005E-07
 -1       155-1.24458E-04 1.91739E-03 1.04099E-04
 -1       156 5.49740E-07 1.40678E-03 2.85214E-07
 -1       157-2.48844E-05 7.92703E-04-1.86060E-04
 -1       158-4.41651E-07 8.09640E-04 1.35400E-07
 -1       159 2.47755E-05 7.92703E-04 1.86160E-04
 -1       160-1.81800E-07 3.08176E-04-2.17195E-08
 -1       182 5.07628E-06 1.47758E-03 2.20652E-04
 -1       183-2.77471E-09 1.77230E-03 2.31440E-04
 -1       184-5.08302E-06 1.47758E-03 2.20653E-04
 -1       185-2.42445E-09 1.30274E-03 4.17225E-04
 -1       186-3.29067E-06 9.60222E-04 4.63702E-04
 -1       187-1.88696E-09 8.89677E-04 4.72387E-04
 -1       188 3.28662E-06 9.60221E-04 4.63702E-04
 -1       189-1.21029E-09 3.75374E-04 2.76084E-04
 -1       211 1.24457E-04 1.91739E-03 1.04100E-04
 -1       212-5.99950E-07 1.69321E-03 1.05896E-07
 -1       213-1.24310E-04 1.91694E-03-1.03867E-04
 -1       214-5.51723E-07 1.40677E-03 2.84442E-07
 -1       215-2.47768E-05 7.92699E-04 1.86161E-04
 -1       216 4.43734E-07 8.09635E-04 1.34809E-07
 -1       217 2.48867E-05 7.92700E-04-1.86060E-04
 -1       218 1.81525E-07 3.08175E-04-2.13502E-08
 -1       250 3.87538E-09 1.91022E-03-1.03060E-04
 -1       251 1.77331E-07 1.20945E-03 7.48061E-08
 -1       252-3.27733E-09 1.54301E-03 8.36843E-08
 -1       253-1.77037E-07 1.20945E-03 6.80465E-08
 -1       254-3.06427E-09 1.91239E-03 1.03430E-04
 -1       255 1.19056E-09 1.37507E-03 1.57187E-07
 -1       256 8.58353E-10 7.83386E-04-2.07237E-04
 -1       257 1.33050E-07 9.13971E-04 5.91199E-08
 -1       258-1.16254E-09 8.12477E-04 7.39593E-08
 -1       259-1.33346E-07 9.13973E-04 6.06623E-08
 -1       260-1.47026E-09 7.83364E-04 2.07353E-04
 -1       261 2.52768E-10 3.48448E-04 8.79269E-09
 -3
    1PSTEP                         3           3           1          
  100CL  103 1.50000E-01          81                     1    3           1
 -4  DISP        4    1
 -5  D1          1    2    1    0
 -5  D2          1    2    2    0
 -5  D3          1    2    3    0
 -5  ALL         1    2    0    0    1ALL
 -1         5 0.00000E+00 0.00000E+00 0.00000E+00
 -1         6 0.00000E+00 0.00000E+00 0.00000E+00
 -1         7 0.00000E+00 0.00000E+00 0.00000E+00
 -1         8 0.00000E+00 0.00000E+00 0.00000E+00
 -1        21 0.00000E+00 0.00000E+00 0.00000E+00
 -1        22 0.00000E+00 0.00000E+00 0.00000E+00
 -1        23 0.00000E+00 0.00000E+00 0.00000E+00
 -1        24 0.00000E+00 0.00000E+00 0.00000E+00
 -1        25 0.00000E+00 0.00000E+00 0.00000E+00
 -1        26 0.00000E+00 0.00000E+00 0.00000E+00
 -1        27 0.00000E+00 0.00000E+00 0.00000E+00
 -1        28 0.00000E+00 0.00000E+00 0.00000E+00
 -1        29 0.00000E+00 0.00000E+00 0.00000E+00
 -1        30 0.00000E+00 0.00000E+00 0.00000E+00
 -1        31 0.00000E+00 0.00000E+00 0.00000E+00
 -1        32 0.00000E+00 0.00000E+00 0.00000E+00
 -1        44 1.21058E-04-1.27393E-03 1.85403E-04
 -1        45 2.79265E-05-9.89621E-04 2.98789E-04
 -1        46-3.30107E-05-7.24024E-04 3.42157E-04
 -1        47 4.27015E-05-2.93168E-04 2.25085E-04
 -1        48-4.27008E-05-2.93168E-04 2.25084E-04
 -1        49 3.30130E-05-7.24024E-04 3.42155E-04
 -1        50-2.79218E-05-9.89621E-04 2.98786E-04
 -1        51-1.21053E-04-1.27393E-03 1.85401E-04
 -1        74-1.20865E-04-1.27424E-03-1.85414E-04
 -1        75-2.77983E-05-9.89774E-04-2.98790E-04
 -1        76 3.29429E-05-7.23952E-04-3.42157E-04
 -1        77-4.27386E-05-2.93117E-04-2.25088E-04
 -1        89 1.20870E-04-1.27424E-03-1.85416E-04
 -1        90 2.78022E-05-9.89774E-04-2.98792E-04
 -1        91-3.29406E-05-7.23952E-04-3.42159E-04
 -1        92 4.27393E-05-2.93117E-04-2.25089E-04
 -1        98 0.00000E+00 0.00000E+00 0.00000E+00
 -1        99 0.00000E+00 0.00000E+00 0.00000E+00
 -1       100 0.00000E+00 0.00000E+00 0.00000E+00
 -1       101 0.00000E+00 0.00000E+00 0.00000E+00
 -1       102 0.00000E+00 0.00000E+00 0.00000E+00
 -1       124-4.25159E-06-1.17211E-03 1.74697E-04
 -1       125 3.66011E-09-1.40099E-03 1.83319E-04
 -1       126 4.25865E-06-1.17211E-03 1.74699E-04
 -1       127 1.95165E-09-1.03129E-03 3.30373E-04
 -1       128 2.76771E-06-7.59734E-04 3.67135E-04
 -1       129 1.30700E-09-7.04480E-04 3.74172E-04
 -1       130-2.76553E-06-7.59735E-04 3.67136E-04
 -1       131 2.46734E-10-2.97456E-04 2.18661E-04
 -1       153-9.99917E-05-1.51925E-03 8.23536E-05
 -1       154 8.85013E-09-1.34497E-03-4.41245E-09
 -1       155 9.99496E-05-1.51937E-03-8.23636E-05
 -1       156-2.13241E-08-1.11444E-03-2.09747E-08
 -1       157 2.00429E-05-6.28427E-04 1.47311E-04
 -1       158 1.56069E-08-6.41750E-04-8.33985E-09
 -1       159-2.00227E-05-6.28404E-04-1.47313E-04
 -1       160 8.38752E-09-2.44005E-04 1.32406E-09
 -1       182-4.18606E-06-1.17199E-03-1.74708E-04
 -1       183 3.19588E-09-1.40118E-03-1.83328E-04
 -1       184 4.19289E-06-1.17199E-03-1.74710E-04
 -1       185 1.82235E-09-1.03133E-03-3.30353E-04
 -1       186 2.74151E-06-7.59792E-04-3.67145E-04
 -1       187 1.06364E-09-7.04494E-04-3.74173E-04
 -1       188-2.73958E-06-7.59792E-04-3.67145E-04
 -1       189 2.41255E-10-2.97459E-04-2.18663E-04
 -1       211-9.99436E-05-1.51937E-03-8.23660E-05
 -1       212-2.40095E-09-1.34497E-03-7.19669E-09
 -1       213 9.99975E-05-1.51925E-03 8.23518E-05
 -1       214 2.59559E-08-1.11444E-03-2.32465E-08
 -1       215 2.00249E-05-6.28404E-04-1.47315E-04
 -1       216-1.34996E-08-6.41751E-04-1.02093E-08
 -1       217-2.00407E-05-6.28427E-04 1.47309E-04
 -1       218-7.63811E-09-2.44005E-04 4.05713E-10
 -1       250 3.54013E-09-1.51211E-03 8.17636E-05
 -1       251 1.97194E-08-9.57658E-04-2.99744E-09
 -1       252 3.77709E-09-1.22185E-03-4.15652E-09
 -1       253-1.23846E-08-9.57657E-04-1.50357E-09
 -1       254 3.13320E-09-1.51215E-03-8.17862E-05
 -1       255 2.25602E-09-1.08994E-03-7.82469E-09
 -1       256 1.25271E-09-6.20406E-04 1.64268E-04
 -1       257-1.13201E-08-7.24362E-04-3.49339E-09
 -1       258 1.06093E-09-6.42983E-04-3.87873E-09
 -1       259 1.33145E-08-7.24361E-04-2.63157E-09
 -1       260 1.16811E-09-6.20424E-04-1.64274E-04
 -1       261 2.45673E-10-2.75985E-04-1.28110E-10
 -3
    1PSTEP                         4           4           1          
  100CL  104 2.00000E-01          81                     1    4           1
 -4  DISP        4    1
 -5  D1          1    2    1    0
 -5  D2          1    2    2    0
 -5  D3          1    2    3    0
 -5  ALL         1    2    0    0    1ALL
 -1         5 0.00000E+00 0.00000E+00 0.00000E+00
 -1         6 0.00000E+00 0.00000E+00 0.00000E+00
 -1         7 0.00000E+00 0.00000E+00 0.00000E+00
 -1         8 0.00000E+00 0.00000E+00 0.00000E+00
 -1        21 0.00000E+00 0.00000E+00 0.00000E+00
 -1        22 0.00000E+00 0.00000E+00 0.00000E+00
 -1        23 0.00000E+00 0.00000E+00 0.00000E+00
 -1        24 0.00000E+00 0.00000E+00 0.00000E+00
 -1        25 0.00000E+00 0.00000E+00 0.00000E+00
 -1        26 0.00000E+00 0.00000E+00 0.00000E+00
 -1        27 0.00000E+00 0.00000E+00 0.00000E+00
 -1        28 0.00000E+00 0.00000E+00 0.00000E+00
 -1        29 0.00000E+00 0.00000E+00 0.00000E+00
 -1        30 0.00000E+00 0.00000E+00 0.00000E+00
 -1        31 0.00000E+00 0.00000E+00 0.00000E+00
 -1        32 0.00000E+00 0.00000E+00 0.00000E+00
 -1        44-9.42022E-05 9.88735E-04-1.43923E-04
 -1        45-2.17376E-05 7.68099E-04-2.31937E-04
 -1        46 2.56387E-05 5.61993E-04-2.65558E-04
 -1        47-3.31245E-05 2.27586E-04-1.74724E-04
 -1        48 3.31233E-05 2.27584E-04-1.74721E-04
 -1        49-2.56420E-05 5.61990E-04-2.65552E-04
 -1        50 2.17223E-05 7.68099E-04-2.31931E-04
 -1        51 9.41811E-05 9.88735E-04-1.43915E-04
 -1        74 9.40372E-05 9.89056E-04 1.43920E-04
 -1        75 2.16156E-05 7.68242E-04 2.31923E-04
 -1        76-2.56482E-05 5.61974E-04 2.65544E-04
 -1        77 3.31464E-05 2.27544E-04 1.74721E-04
 -1        89-9.40638E-05 9.89039E-04 1.43920E-04
 -1        90-2.16355E-05 7.68242E-04 2.31927E-04
 -1        91 2.56436E-05 5.61973E-04 2.65552E-04
 -1        92-3.31489E-05 2.27545E-04 1.74726E-04
 -1        98 0.00000E+00 0.00000E+00 0.00000E+00
 -1        99 0.00000E+00 0.00000E+00 0.00000E+00
 -1       100 0.00000E+00 0.00000E+00 0.00000E+00
 -1       101 0.00000E+00 0.00000E+00 0.00000E+00
 -1       102 0.00000E+00 0.00000E+00 0.00000E+00
 -1       124 3.55355E-06 9.09814E-04-1.35605E-04
 -1       125-1.33036E-08 1.08752E-03-1.42313E-04
 -1       126-3.57592E-06 9.09817E-04-1.35612E-04
 -1       127-5.20262E-09 8.00571E-04-2.56430E-04
 -1       128-2.19511E-06 5.89690E-04-2.84969E-04
 -1       129-3.54682E-09 5.46781E-04-2.90446E-04
 -1       130 2.18962E-06 5.89691E-04-2.84972E-04
 -1       131-9.31777E-11 2.30865E-04-1.69718E-04
 -1       153 7.77739E-05 1.17922E-03-6.39298E-05
 -1       154 1.48873E-08 1.04429E-03-5.87604E-10
 -1       155-7.77714E-05 1.17978E-03 6.39195E-05
 -1       156 2.32873E-08 8.64983E-04 1.06236E-08
 -1       157-1.56001E-05 4.87862E-04-1.14333E-04
 -1       158-1.59715E-09 4.98207E-04 2.68468E-09
 -1       159 1.55915E-05 4.87759E-04 1.14326E-04
 -1       160-1.23981E-08 1.89392E-04-3.47680E-09
 -1       182 3.05952E-06 9.09688E-04 1.35607E-04
 -1       183-1.76534E-08 1.08772E-03 1.42311E-04
 -1       184-3.08929E-06 9.09682E-04 1.35612E-04
 -1       185-6.93423E-09 8.00631E-04 2.56404E-04
 -1       186-2.10155E-06 5.89721E-04 2.84972E-04
 -1       187-4.74436E-09 5.46698E-04 2.90443E-04
 -1       188 2.09429E-06 5.89719E-04 2.84974E-04
 -1       189-6.52630E-10 2.30853E-04 1.69720E-04
 -1       211 7.77477E-05 1.17977E-03 6.39354E-05
 -1       212-3.94397E-08 1.04429E-03 4.42104E-09
 -1       213-7.77945E-05 1.17922E-03-6.39229E-05
 -1       214-3.60929E-08 8.64979E-04 1.87384E-08
 -1       215-1.55984E-05 4.87758E-04 1.14331E-04
 -1       216-6.52374E-09 4.98207E-04 9.20113E-09
 -1       217 1.55939E-05 4.87860E-04-1.14327E-04
 -1       218 1.02195E-08 1.89392E-04-5.50896E-10
 -1       250-1.12321E-08 1.17372E-03-6.34802E-05
 -1       251-2.55121E-07 7.43368E-04-4.12103E-09
 -1       252-7.74527E-09 9.48225E-04-3.44730E-09
 -1       253 2.34619E-07 7.43369E-04-4.36489E-09
 -1       254-1.30449E-08 1.17332E-03 6.34868E-05
 -1       255-7.19258E-09 8.46060E-04 2.90985E-09
 -1       256-3.05553E-09 4.81500E-04-1.27519E-04
 -1       257 4.69230E-08 5.62267E-04 1.89112E-09
 -1       258-2.67593E-09 4.99027E-04 4.23169E-10
 -1       259-5.33095E-08 5.62267E-04-1.88641E-09
 -1       260-3.72078E-09 4.81569E-04 1.27520E-04
 -1       261-1.12169E-09 2.14223E-04 1.17209E-09
 -3
    1PSTEP                         5           5           1          
  100CL  105 2.50000E-01          81                     1    5           1
 -4  DISP        4    1
 -5  D1          1    2    1    0
 -5  D2          1    2    2    0
 -5  D3          1    2    3    0
 -5  ALL         1    2    0    0    1ALL
 -1         5 0.00000E+00 0.00000E+00 0.00000E+00
 -1         6 0.00000E+00 0.00000E+00 0.00000E+00
 -1         7 0.00000E+00 0.00000E+00 0.00000E+00
 -1         8 0.00000E+00 0.00000E+00 0.00000E+00
 -1        21 0.00000E+00 0.00000E+00 0.00000E+00
 -1        22 0.00000E+00 0.00000E+00 0.00000E+00
 -1        23 0.00000E+00 0.00000E+00 0.00000E+00
 -1        24 0.00000E+00 0.00000E+00 0.00000E+00
 -1        25 0.00000E+00 0.00000E+00 0.00000E+00
 -1        26 0.00000E+00 0.00000E+00 0.00000E+00
 -1        27 0.00000E+00 0.00000E+00 0.00000E+00
 -1        28 0.00000E+00 0.00000E+00 0.00000E+00
 -1        29 0.00000E+00 0.00000E+00 0.00000E+00
 -1        30 0.00000E+00 0.00000E+00 0.00000E+00
 -1        31 0.00000E+00 0.00000E+00 0.00000E+00
 -1        32 0.00000E+00 0.00000E+00 0.00000E+00
 -1        44 7.10630E-05-7.46524E-04 1.08647E-04
 -1        45 1.63504E-05-5.79922E-04 1.75087E-04
 -1        46-1.93389E-05-4.24217E-04 2.00464E-04
 -1        47 2.50192E-05-1.71787E-04 1.31905E-04
 -1        48-2.50198E-05-1.71785E-04 1.31902E-04
 -1        49 1.93364E-05-4.24214E-04 2.00461E-04
 -1        50-1.63414E-05-5.79923E-04 1.75087E-04
 -1        51-7.10475E-05-7.46539E-04 1.08645E-04
 -1        74-7.12786E-05-7.46364E-04-1.08652E-04
 -1        75-1.64633E-05-5.79811E-04-1.75086E-04
 -1        76 1.94316E-05-4.24303E-04-2.00458E-04
 -1        77-2.49805E-05-1.71820E-04-1.31902E-04
 -1        89 7.13005E-05-7.46342E-04-1.08655E-04
 -1        90 1.64768E-05-5.79805E-04-1.75087E-04
 -1        91-1.94313E-05-4.24303E-04-2.00459E-04
 -1        92 2.49815E-05-1.71820E-04-1.31904E-04
 -1        98 0.00000E+00 0.00000E+00 0.00000E+00
 -1        99 0.00000E+00 0.00000E+00 0.00000E+00
 -1       100 0.00000E+00 0.00000E+00 0.00000E+00
 -1       101 0.00000E+00 0.00000E+00 0.00000E+00
 -1       102 0.00000E+00 0.00000E+00 0.00000E+00
 -1       124-2.57648E-06-6.86773E-04 1.02380E-04
 -1       125 1.17157E-08-8.21079E-04 1.07437E-04
 -1       126 2.59275E-06-6.86773E-04 1.02384E-04
 -1       127 5.30170E-10-6.04379E-04 1.93564E-04
 -1       128 1.62936E-06-4.45168E-04 2.15128E-04
 -1       129 2.28763E-09-4.12741E-04 2.19261E-04
 -1       130-1.62757E-06-4.45168E-04 2.15128E-04
 -1       131-7.43227E-10-1.74273E-04 1.28119E-04
 -1       153-5.87340E-05-8.90373E-04 4.82644E-05
 -1       154-5.69474E-08-7.88456E-04-4.81919E-09
 -1       155 5.88269E-05-8.90510E-04-4.82623E-05
 -1       156-1.12844E-09-6.52974E-04 1.39776E-08
 -1       157 1.17808E-05-3.68268E-04 8.63065E-05
 -1       158 1.16986E-09-3.76115E-04 6.44344E-09
 -1       159-1.17990E-05-3.68259E-04-8.63060E-05
 -1       160 3.00914E-09-1.42967E-04 1.97762E-09
 -1       182-2.47336E-06-6.86832E-04-1.02380E-04
 -1       183 1.54264E-08-8.21031E-04-1.07436E-04
 -1       184 2.49674E-06-6.86828E-04-1.02380E-04
 -1       185 3.17309E-09-6.04410E-04-1.93590E-04
 -1       186 1.62489E-06-4.45155E-04-2.15127E-04
 -1       187 3.89874E-09-4.12714E-04-2.19273E-04
 -1       188-1.62014E-06-4.45154E-04-2.15128E-04
 -1       189 2.48899E-11-1.74269E-04-1.28122E-04
 -1       211-5.88192E-05-8.90492E-04-4.82649E-05
 -1       212 6.22432E-08-7.88452E-04-9.09743E-12
 -1       213 5.87388E-05-8.90383E-04 4.82613E-05
 -1       214 4.04209E-09-6.52972E-04 1.05198E-08
 -1       215 1.18026E-05-3.68259E-04-8.63080E-05
 -1       216 3.35589E-09-3.76114E-04 2.96057E-09
 -1       217-1.17787E-05-3.68265E-04 8.63046E-05
 -1       218-2.33247E-09-1.42966E-04 1.50991E-09
 -1       250 3.26964E-09-8.85944E-04 4.79263E-05
 -1       251 9.46781E-08-5.61180E-04-9.47349E-10
 -1       252-7.09647E-09-7.15768E-04 2.45404E-09
 -1       253-9.64676E-08-5.61182E-04-3.76899E-09
 -1       254 5.04978E-09-8.85778E-04-4.79253E-05
 -1       255 2.84472E-09-6.38707E-04-2.48286E-10
 -1       256 7.57997E-10-3.63495E-04 9.62704E-05
 -1       257-1.40178E-08-4.24463E-04-1.12425E-09
 -1       258-3.63491E-10-3.76703E-04-5.43627E-10
 -1       259 1.50892E-08-4.24464E-04 7.59115E-10
 -1       260 1.58511E-09-3.63514E-04-9.62695E-05
 -1       261 1.03896E-09-1.61719E-04-7.13947E-10
 -3
    1PSTEP                         6           6           1          
  100CL  106 3.00000E-01          81                     1    6           1
 -4  DISP        4    1
 -5  D1          1    2    1    0
 -5  D2          1    2    2    0
 -5  D3          1    2    3    0
 -5  ALL         1    2    0    0    1ALL
 -1         5 0.00000E+00 0.00000E+00 0.00000E+00
 -1         6 0.00000E+00 0.00000E+00 0.00000E+00
 -1         7 0.00000E+00 0.00000E+00 0.00000E+00
 -1         8 0.00000E+00 0.00000E+00 0.00000E+00
 -1        21 0.00000E+00 0.00000E+00 0.00000E+00
 -1        22 0.00000E+00 0.00000E+00 0.00000E+00
 -1        23 0.00000E+00 0.00000E+00 0.00000E+00
 -1        24 0.00000E+00 0.00000E+00 0.00000E+00
 -1        25 0.00000E+00 0.00000E+00 0.00000E+00
 -1        26 0.00000E+00 0.00000E+00 0.00000E+00
 -1        27 0.00000E+00 0.00000E+00 0.00000E+00
 -1        28 0.00000E+00 0.00000E+00 0.00000E+00
 -1        29 0.00000E+00 0.00000E+00 0.00000E+00
 -1        30 0.00000E+00 0.00000E+00 0.00000E+00
 -1        31 0.00000E+00 0.00000E+00 0.00000E+00
 -1        32 0.00000E+00 0.00000E+00 0.00000E+00
 -1        44-5.14094E-05 5.41365E-04-7.87784E-05
 -1        45-1.18210E-05 4.20524E-04-1.26946E-04
 -1        46 1.39893E-05 3.07571E-04-1.45363E-04
 -1        47-1.81534E-05 1.24548E-04-9.56368E-05