    1C
    1UUSER                                                              
    1UDATE              12.july.2018                                    
    1UTIME              13:04:42                                        
    1UHOST                                                              
    1UPGM               CalculiX                                        
    1UVERSION           Version 2.13                             
    1UCOMPILETIME       jue jun 14 00:40:39 CEST 2018                    
    1UDIR                                                               
    1UDBN                                                               
    1UMAT    1EL                                                        
    2C                            81                                     1
 -1         5 0.00000E+00 0.00000E+00 8.00000E+00
 -1         6 1.00000E+00 0.00000E+00 8.00000E+00
 -1         7 1.00000E+00 1.00000E+00 8.00000E+00
 -1         8 0.00000E+00 1.00000E+00 8.00000E+00
 -1        21 2.50000E-01 0.00000E+00 8.00000E+00
 -1        22 5.00000E-01 0.00000E+00 8.00000E+00
 -1        23 7.50000E-01 0.00000E+00 8.00000E+00
 -1        24 1.00000E+00 2.50000E-01 8.00000E+00
 -1        25 1.00000E+00 5.00000E-01 8.00000E+00
 -1        26 1.00000E+00 7.50000E-01 8.00000E+00
 -1        27 7.50000E-01 1.00000E+00 8.00000E+00
 -1        28 5.00000E-01 1.00000E+00 8.00000E+00
 -1        29 2.50000E-01 1.00000E+00 8.00000E+00
 -1        30 0.00000E+00 7.50000E-01 8.00000E+00
 -1        31 0.00000E+00 5.00000E-01 8.00000E+00
 -1        32 0.00000E+00 2.50000E-01 8.00000E+00
 -1        44 1.00000E+00 0.00000E+00 6.00000E+00
 -1        45 1.00000E+00 0.00000E+00 6.50000E+00
 -1        46 1.00000E+00 0.00000E+00 7.00000E+00
 -1        47 1.00000E+00 0.00000E+00 7.50000E+00
 -1        48 0.00000E+00 0.00000E+00 7.50000E+00
 -1        49 0.00000E+00 0.00000E+00 7.00000E+00
 -1        50 0.00000E+00 0.00000E+00 6.50000E+00
 -1        51 0.00000E+00 0.00000E+00 6.00000E+00
 -1        74 1.00000E+00 1.00000E+00 6.00000E+00
 -1        75 1.00000E+00 1.00000E+00 6.50000E+00
 -1        76 1.00000E+00 1.00000E+00 7.00000E+00
 -1        77 1.00000E+00 1.00000E+00 7.50000E+00
 -1        89 0.00000E+00 1.00000E+00 6.00000E+00
 -1        90 0.00000E+00 1.00000E+00 6.50000E+00
 -1        91 0.00000E+00 1.00000E+00 7.00000E+00
 -1        92 0.00000E+00 1.00000E+00 7.50000E+00
 -1        98 5.00000E-01 2.50000E-01 8.00000E+00
 -1        99 2.50000E-01 5.00000E-01 8.00000E+00
 -1       100 5.00000E-01 5.00000E-01 8.00000E+00
 -1       101 7.50000E-01 5.00000E-01 8.00000E+00
 -1       102 5.00000E-01 7.50000E-01 8.00000E+00
 -1       124 2.50000E-01 0.00000E+00 6.00000E+00
 -1       125 5.00000E-01 0.00000E+00 6.00000E+00
 -1       126 7.50000E-01 0.00000E+00 6.00000E+00
 -1       127 5.00000E-01 0.00000E+00 6.50000E+00
 -1       128 2.50000E-01 0.00000E+00 7.00000E+00
 -1       129 5.00000E-01 0.00000E+00 7.00000E+00
 -1       130 7.50000E-01 0.00000E+00 7.00000E+00
 -1       131 5.00000E-01 0.00000E+00 7.50000E+00
 -1       153 1.00000E+00 2.50000E-01 6.00000E+00
 -1       154 1.00000E+00 5.00000E-01 6.00000E+00
 -1       155 1.00000E+00 7.50000E-01 6.00000E+00
 -1       156 1.00000E+00 5.00000E-01 6.50000E+00
 -1       157 1.00000E+00 2.50000E-01 7.00000E+00
 -1       158 1.00000E+00 5.00000E-01 7.00000E+00
 -1       159 1.00000E+00 7.50000E-01 7.00000E+00
 -1       160 1.00000E+00 5.00000E-01 7.50000E+00
 -1       182 7.50000E-01 1.00000E+00 6.00000E+00
 -1       183 5.00000E-01 1.00000E+00 6.00000E+00
 -1       184 2.50000E-01 1.00000E+00 6.00000E+00
 -1       185 5.00000E-01 1.00000E+00 6.50000E+00
 -1       186 7.50000E-01 1.00000E+00 7.00000E+00
 -1       187 5.00000E-01 1.00000E+00 7.00000E+00
 -1       188 2.50000E-01 1.00000E+00 7.00000E+00
 -1       189 5.00000E-01 1.00000E+00 7.50000E+00
 -1       211 0.00000E+00 7.50000E-01 6.00000E+00
 -1       212 0.00000E+00 5.00000E-01 6.00000E+00
 -1       213 0.00000E+00 2.50000E-01 6.00000E+00
 -1       214 0.00000E+00 5.00000E-01 6.50000E+00
 -1       215 0.00000E+00 7.50000E-01 7.00000E+00
 -1       216 0.00000E+00 5.00000E-01 7.00000E+00
 -1       217 0.00000E+00 2.50000E-01 7.00000E+00
 -1       218 0.00000E+00 5.00000E-01 7.50000E+00
 -1       250 5.00000E-01 2.50000E-01 6.00000E+00
 -1       251 2.50000E-01 5.00000E-01 6.00000E+00
 -1       252 5.00000E-01 5.00000E-01 6.00000E+00
 -1       253 7.50000E-01 5.00000E-01 6.00000E+00
 -1       254 5.00000E-01 7.50000E-01 6.00000E+00
 -1       255 5.00000E-01 5.00000E-01 6.50000E+00
 -1       256 5.00000E-01 2.50000E-01 7.00000E+00
 -1       257 2.50000E-01 5.00000E-01 7.00000E+00
 -1       258 5.00000E-01 5.00000E-01 7.00000E+00
 -1       259 7.50000E-01 5.00000E-01 7.00000E+00
 -1       260 5.00000E-01 7.50000E-01 7.00000E+00
 -1       261 5.00000E-01 5.00000E-01 7.50000E+00
 -3
    3C                             8                                     1
 -1        25    4    0    1
 -2        51       125       252       212        49       129       258       216       124       250
 -2       251       213        50       127       255       214       128       256       257       217
 -1        26    4    0    1
 -2       125        44       154       252       129        46       158       258       126       153
 -2       253       250       127        45       156       255       130       157       259       256
 -1        27    4    0    1
 -2       212       252       183        89       216       258       187        91       251       254
 -2       184       211       214       255       185        90       257       260       188       215
 -1        28    4    0    1
 -2       252       154        74       183       258       158        76       187       253       155
 -2       182       254       255       156        75       185       259       159       186       260
 -1        29    4    0    1
 -2        49       129       258       216         5        22       100        31       128       256
 -2       257       217        48       131       261       218        21        98        99        32
 -1        30    4    0    1
 -2       129        46       158       258        22         6        25       100       130       157
 -2       259       256       131        47       160       261        23        24       101        98
 -1        31    4    0    1
 -2       216       258       187        91        31       100        28         8       257       260
 -2       188       215       218       261       189        92        99       102        29        30
 -1        32    4    0    1
 -2       258       158        76       187       100        25         7        28       259       159
 -2       186       260       261       160        77       189       101        26        27       102
 -3
    1PSTEP                         1           1           1          
  100CL  101 5.00000E-02          81                     1    1           1
 -4  DISP        4    1
 -5  D1          1    2    1    0
 -5  D2          1    2    2    0
 -5  D3          1    2    3    0
 -5  ALL         1    2    0    0    1ALL
 -1         5 0.00000E+00 0.00000E+00 0.00000E+00
 -1         6 0.00000E+00 0.00000E+00 0.00000E+00
 -1         7 0.00000E+00 0.00000E+00 0.00000E+00
 -1         8 0.00000E+00 0.00000E+00 0.00000E+00
 -1        21 0.00000E+00 0.00000E+00 0.00000E+00
 -1        22 0.00000E+00 0.00000E+00 0.00000E+00
 -1        23 0.00000E+00 0.00000E+00 0.00000E+00
 -1        24 0.00000E+00 0.00000E+00 0.00000E+00
 -1        25 0.00000E+00 0.00000E+00 0.00000E+00
 -1        26 0.00000E+00 0.00000E+00 0.00000E+00
 -1        27 0.00000E+00 0.00000E+00 0.00000E+00
 -1        28 0.00000E+00 0.00000E+00 0.00000E+00
 -1        29 0.00000E+00 0.00000E+00 0.00000E+00
 -1        30 0.00000E+00 0.00000E+00 0.00000E+00
 -1        31 0.00000E+00 0.00000E+00 0.00000E+00
 -1        32 0.00000E+00 0.00000E+00 0.00000E+00
 -1        44 5.96671E-05-1.99608E-03 2.77155E-04
 -1        45 7.94599E-06-1.52040E-03 4.88142E-04
 -1        46-3.66346E-05-1.10672E-03 5.13007E-04
 -1        47 6.47016E-05-4.61132E-04 3.44923E-04
 -1        48-6.47024E-05-4.61132E-04 3.44925E-04
 -1        49 3.66391E-05-1.10671E-03 5.13009E-04
 -1        50-7.95094E-06-1.52040E-03 4.88127E-04
 -1        51-5.96348E-05-1.99605E-03 2.77101E-04
 -1        74-5.14540E-05-2.02747E-03-2.80746E-04
 -1        75-2.37100E-06-1.53204E-03-4.90283E-04
 -1        76 3.21790E-05-1.10414E-03-5.14346E-04
 -1        77-6.78832E-05-4.55023E-04-3.45736E-04
 -1        89 5.14218E-05-2.02743E-03-2.80691E-04
 -1        90 2.37607E-06-1.53204E-03-4.90268E-04
 -1        91-3.21833E-05-1.10413E-03-5.14348E-04
 -1        92 6.78841E-05-4.55023E-04-3.45738E-04
 -1        98 0.00000E+00 0.00000E+00 0.00000E+00
 -1        99 0.00000E+00 0.00000E+00 0.00000E+00
 -1       100 0.00000E+00 0.00000E+00 0.00000E+00
 -1       101 0.00000E+00 0.00000E+00 0.00000E+00
 -1       102 0.00000E+00 0.00000E+00 0.00000E+00
 -1       124-6.11541E-06-1.80916E-03 2.63114E-04
 -1       125 3.98336E-09-2.01124E-03 2.79049E-04
 -1       126 6.13280E-06-1.80918E-03 2.63133E-04
 -1       127-8.93142E-10-1.53469E-03 4.55172E-04
 -1       128 1.54897E-05-1.15381E-03 5.50386E-04
 -1       129-4.27441E-10-1.09882E-03 5.62904E-04
 -1       130-1.54878E-05-1.15381E-03 5.50388E-04
 -1       131 4.93123E-11-4.60092E-04 3.29516E-04
 -1       153-1.01386E-04-2.40657E-03 1.26795E-04
 -1       154-2.91437E-06-2.14648E-03-9.29083E-07
 -1       155 1.01543E-04-2.41690E-03-1.31101E-04
 -1       156-1.98932E-06-1.58882E-03-2.83044E-06
 -1       157 1.47338E-05-1.00781E-03 2.16246E-04
 -1       158 3.05629E-06-1.08458E-03-3.95656E-07
 -1       159-1.14754E-05-1.00856E-03-2.16621E-04
 -1       160 1.31030E-06-3.91074E-04 7.68774E-07
 -1       182-6.70516E-06-1.79636E-03-2.64704E-04
 -1       183-3.97769E-09-2.03773E-03-2.80599E-04
 -1       184 6.68777E-06-1.79634E-03-2.64685E-04
 -1       185 9.50931E-10-1.54916E-03-4.55306E-04
 -1       186 1.45934E-05-1.16804E-03-5.54269E-04
 -1       187 4.82144E-10-1.11028E-03-5.67541E-04
 -1       188-1.45952E-05-1.16804E-03-5.54267E-04
 -1       189-2.42907E-11-4.62014E-04-3.31256E-04
 -1       211-1.01561E-04-2.41688E-03-1.31082E-04
 -1       212 2.91441E-06-2.14647E-03-9.29087E-07
 -1       213 1.01405E-04-2.40655E-03 1.26776E-04
 -1       214 1.98937E-06-1.58882E-03-2.83044E-06
 -1       215 1.14739E-05-1.00856E-03-2.16619E-04
 -1       216-3.05624E-06-1.08458E-03-3.95666E-07
 -1       217-1.47322E-05-1.00781E-03 2.16244E-04
 -1       218-1.31027E-06-3.91074E-04 7.68752E-07
 -1       250 3.93813E-09-2.03287E-03 1.10475E-04
 -1       251-4.16285E-07-1.52479E-03 3.35295E-06
 -1       252 3.32269E-11-1.54150E-03 1.23151E-06
 -1       253 4.16320E-07-1.52480E-03 3.35295E-06
 -1       254-3.87756E-09-2.04899E-03-1.23199E-04
 -1       255 1.96029E-11-1.69461E-03-1.11457E-06
 -1       256-7.49208E-10-9.47956E-04 2.52059E-04
 -1       257-1.54808E-06-1.09200E-03-1.28934E-06
 -1       258 3.59281E-11-9.35972E-04-1.11803E-06
 -1       259 1.54814E-06-1.09200E-03-1.28933E-06
 -1       260 8.06000E-10-9.52456E-04-2.52307E-04
 -1       261 1.24986E-11-4.35297E-04 8.27741E-08
 -3
    1PSTEP                         2           2           1          
  100CL  102 1.00000E-01          81                     1    2           1
 -4  DISP        4    1
 -5  D1          1    2    1    0
 -5  D2          1    2    2    0
 -5  D3          1    2    3    0
 -5  ALL         1    2    0    0    1ALL
 -1         5 0.00000E+00 0.00000E+00 0.00000E+00
 -1         6 0.00000E+00 0.00000E+00 0.00000E+00
 -1         7 0.00000E+00 0.00000E+00 0.00000E+00
 -1         8 0.00000E+00 0.00000E+00 0.00000E+00
 -1        21 0.00000E+00 0.00000E+00 0.00000E+00
 -1        22 0.00000E+00 0.00000E+00 0.00000E+00
 -1        23 0.00000E+00 0.00000E+00 0.00000E+00
 -1        24 0.00000E+00 0.00000E+00 0.00000E+00
 -1        25 0.00000E+00 0.00000E+00 0.00000E+00
 -1        26 0.00000E+00 0.00000E+00 0.00000E+00
 -1        27 0.00000E+00 0.00000E+00 0.00000E+00
 -1        28 0.00000E+00 0.00000E+00 0.00000E+00
 -1        29 0.00000E+00 0.00000E+00 0.00000E+00
 -1        30 0.00000E+00 0.00000E+00 0.00000E+00
 -1        31 0.00000E+00 0.00000E+00 0.00000E+00
 -1        32 0.00000E+00 0.00000E+00 0.00000E+00
 -1        44-1.48265E-04 1.63955E-03-2.39447E-04
 -1        45-2.75280E-05 1.22551E-03-4.19086E-04
 -1        46 3.13334E-05 9.40071E-04-4.43842E-04
 -1        47-4.69502E-05 3.79988E-04-2.84034E-04
 -1        48 4.69463E-05 3.79984E-04-2.84021E-04
 -1        49-3.12988E-05 9.40104E-04-4.43831E-04
 -1        50 2.74968E-05 1.22548E-03-4.19195E-04
 -1        51 1.48504E-04 1.63979E-03-2.39840E-04
 -1        74 1.40769E-04 1.66447E-03 2.37722E-04
 -1        75 2.16103E-05 1.23695E-03 4.18314E-04
 -1        76-2.78496E-05 9.33516E-04 4.43713E-04
 -1        77 4.88377E-05 3.76032E-04 2.84255E-04
 -1        89-1.41008E-04 1.66471E-03 2.38115E-04
 -1        90-2.15792E-05 1.23692E-03 4.18422E-04
 -1        91 2.78149E-05 9.33549E-04 4.43702E-04
 -1        92-4.88338E-05 3.76028E-04 2.84242E-04
 -1        98 0.00000E+00 0.00000E+00 0.00000E+00
 -1        99 0.00000E+00 0.00000E+00 0.00000E+00
 -1       100 0.00000E+00 0.00000E+00 0.00000E+00
 -1       101 0.00000E+00 0.00000E+00 0.00000E+00
 -1       102 0.00000E+00 0.00000E+00 0.00000E+00
 -1       124 7.47836E-05 1.50910E-03-2.33707E-04
 -1       125 3.32043E-08 1.68112E-03-2.25825E-04
 -1       126-7.46504E-05 1.50896E-03-2.33569E-04
 -1       127-4.83361E-09 1.28689E-03-3.77861E-04
 -1       128-1.84785E-05 9.60758E-04-4.64050E-04
 -1       129-1.30289E-09 8.98055E-04-4.72473E-04
 -1       130 1.84955E-05 9.60746E-04-4.64037E-04
 -1       131 1.24218E-09 3.77288E-04-2.77207E-04
 -1       153 8.18812E-05 1.99191E-03-1.13028E-04
 -1       154 4.29659E-06 1.70594E-03 1.12129E-07
 -1       155-8.21258E-05 1.99847E-03 1.13863E-04
 -1       156 3.05444E-06 1.32609E-03 1.23714E-06
 -1       157-2.16343E-05 8.23698E-04-1.88221E-04
 -1       158-2.23649E-06 8.73953E-04 1.55855E-07
 -1       159 2.12618E-05 8.21987E-04 1.87662E-04
 -1       160-8.31173E-07 3.24860E-04-8.78184E-08
 -1       182 7.59989E-05 1.49473E-03 2.31085E-04
 -1       183-3.32089E-08 1.69800E-03 2.23539E-04
 -1       184-7.61320E-05 1.49486E-03 2.31223E-04
 -1       185 4.78891E-09 1.29518E-03 3.75961E-04
 -1       186-1.80092E-05 9.64027E-04 4.65476E-04
 -1       187 1.25638E-09 8.93857E-04 4.73982E-04
 -1       188 1.79921E-05 9.64039E-04 4.65489E-04
 -1       189-1.26266E-09 3.75271E-04 2.77555E-04
 -1       211 8.19893E-05 1.99860E-03 1.14001E-04
 -1       212-4.29661E-06 1.70601E-03 1.12123E-07
 -1       213-8.17448E-05 1.99204E-03-1.13166E-04
 -1       214-3.05448E-06 1.32608E-03 1.23714E-06
 -1       215-2.12743E-05 8.22003E-04 1.87675E-04
 -1       216 2.23644E-06 8.73950E-04 1.55862E-07
 -1       217 2.16466E-05 8.23714E-04-1.88234E-04
 -1       218 8.31149E-07 3.24862E-04-8.78013E-08
 -1       250 3.03665E-08 1.75028E-03-8.68311E-05
 -1       251-6.94478E-07 1.23890E-03-1.98726E-06
 -1       252-2.02019E-11 1.37365E-03-1.76083E-07
 -1       253 6.94460E-07 1.23884E-03-1.98726E-06
 -1       254-3.04124E-08 1.75949E-03 9.27053E-05
 -1       255-1.49966E-11 1.41229E-03 1.18763E-07
 -1       256-4.62287E-09 7.78162E-04-2.11325E-04
 -1       257 7.52405E-07 9.02219E-04 3.68739E-07
 -1       258-2.89688E-11 7.76923E-04 1.99161E-07
 -1       259-7.52459E-07 9.02228E-04 3.68735E-07
 -1       260 4.57680E-09 7.75773E-04 2.10670E-04
 -1       261-1.08455E-11 3.48773E-04 3.29604E-07
 -3
    1PSTEP                         3           3           1          
  100CL  103 1.50000E-01          81                     1    3           1
 -4  DISP        4    1
 -5  D1          1    2    1    0
 -5  D2          1    2    2    0
 -5  D3          1    2    3    0
 -5  ALL         1    2    0    0    1ALL
 -1         5 0.00000E+00 0.00000E+00 0.00000E+00
 -1         6 0.00000E+00 0.00000E+00 0.00000E+00
 -1         7 0.00000E+00 0.00000E+00 0.00000E+00
 -1         8 0.00000E+00 0.00000E+00 0.00000E+00
 -1        21 0.00000E+00 0.00000E+00 0.00000E+00
 -1        22 0.00000E+00 0.00000E+00 0.00000E+00
 -1        23 0.00000E+00 0.00000E+00 0.00000E+00
 -1        24 0.00000E+00 0.00000E+00 0.00000E+00
 -1        25 0.00000E+00 0.00000E+00 0.00000E+00
 -1        26 0.00000E+00 0.00000E+00 0.00000E+00
 -1        27 0.00000E+00 0.00000E+00 0.00000E+00
 -1        28 0.00000E+00 0.00000E+00 0.00000E+00
 -1        29 0.00000E+00 0.00000E+00 0.00000E+00
 -1        30 0.00000E+00 0.00000E+00 0.00000E+00
 -1        31 0.00000E+00 0.00000E+00 0.00000E+00
 -1        32 0.00000E+00 0.00000E+00 0.00000E+00
 -1        44 4.22500E-05-1.38230E-03 1.94348E-04
 -1        45 1.76863E-05-1.04259E-03 3.44858E-04
 -1        46-2.32813E-05-7.50238E-04 3.71567E-04
 -1        47 4.35095E-05-3.07806E-04 2.40515E-04
 -1        48-4.35264E-05-3.07822E-04 2.40566E-04
 -1        49 2.34179E-05-7.50101E-04 3.71610E-04
 -1        50-1.78143E-05-1.04271E-03 3.44424E-04
 -1        51-4.12972E-05-1.38135E-03 1.92772E-04
 -1        74-4.18826E-05-1.40758E-03-2.03151E-04
 -1        75-1.16929E-05-1.05068E-03-3.46216E-04
 -1        76 1.90635E-05-7.45981E-04-3.71485E-04
 -1        77-4.49702E-05-3.04480E-04-2.40722E-04
 -1        89 4.09298E-05-1.40663E-03-2.01576E-04
 -1        90 1.18209E-05-1.05081E-03-3.45781E-04
 -1        91-1.92001E-05-7.45843E-04-3.71528E-04
 -1        92 4.49872E-05-3.04497E-04-2.40774E-04
 -1        98 0.00000E+00 0.00000E+00 0.00000E+00
 -1        99 0.00000E+00 0.00000E+00 0.00000E+00
 -1       100 0.00000E+00 0.00000E+00 0.00000E+00
 -1       101 0.00000E+00 0.00000E+00 0.00000E+00
 -1       102 0.00000E+00 0.00000E+00 0.00000E+00
 -1       124-1.03629E-05-1.25119E-03 2.10782E-04
 -1       125 1.30273E-07-1.37939E-03 1.79554E-04
 -1       126 1.08911E-05-1.25174E-03 2.11334E-04
 -1       127-2.07306E-08-1.06796E-03 3.22781E-04
 -1       128 1.13798E-05-7.77827E-04 3.83326E-04
 -1       129-6.28448E-09-7.35510E-04 3.96549E-04
 -1       130-1.13138E-05-7.77876E-04 3.83378E-04
 -1       131 4.39601E-09-3.08509E-04 2.31954E-04
 -1       153-7.52413E-05-1.66453E-03 1.05248E-04
 -1       154-2.72033E-06-1.47944E-03 1.91991E-07
 -1       155 7.21752E-05-1.67245E-03-1.09384E-04
 -1       156-2.03137E-06-1.08746E-03-1.14143E-06
 -1       157 1.22417E-05-6.78239E-04 1.55832E-04
 -1       158 1.67428E-06-7.28912E-04-1.06187E-07
 -1       159-1.25063E-05-6.77229E-04-1.55691E-04
 -1       160 4.00030E-07-2.59744E-04 8.64681E-08
 -1       182-1.36752E-05-1.24338E-03-2.12110E-04
 -1       183-1.30284E-07-1.39400E-03-1.77591E-04
 -1       184 1.31469E-05-1.24284E-03-2.11558E-04
 -1       185 2.07608E-08-1.07453E-03-3.22235E-04
 -1       186 9.98281E-06-7.80877E-04-3.85522E-04
 -1       187 6.31950E-09-7.31651E-04-3.98686E-04
 -1       188-1.00487E-05-7.80828E-04-3.85469E-04
 -1       189-4.37945E-09-3.06768E-04-2.32184E-04
 -1       211-7.27190E-05-1.67192E-03-1.08832E-04
 -1       212 2.72034E-06-1.47918E-03 1.91992E-07
 -1       213 7.57852E-05-1.66400E-03 1.04696E-04
 -1       214 2.03140E-06-1.08750E-03-1.14142E-06
 -1       215 1.24577E-05-6.77162E-04-1.55639E-04
 -1       216-1.67425E-06-7.28924E-04-1.06190E-07
 -1       217-1.21931E-05-6.78172E-04 1.55780E-04
 -1       218-4.00011E-07-2.59735E-04 8.64551E-08
 -1       250 1.20478E-07-1.42753E-03 8.28406E-05
 -1       251 2.07609E-07-1.08270E-03 2.56376E-06
 -1       252 1.63303E-11-1.12688E-03 1.17937E-06
 -1       253-2.07599E-07-1.08294E-03 2.56377E-06
 -1       254-1.20450E-07-1.43650E-03-8.86598E-05
 -1       255 9.04152E-12-1.15654E-03 3.49847E-07
 -1       256-1.90207E-08-6.41519E-04 1.76004E-04
 -1       257-5.49178E-07-7.42248E-04-5.68544E-07
 -1       258 2.30636E-11-6.41401E-04-4.97340E-07
 -1       259 5.49220E-07-7.42210E-04-5.68543E-07
 -1       260 1.90568E-08-6.39044E-04-1.75712E-04
 -1       261 8.08862E-12-2.86098E-04-4.75660E-07
 -3
    1PSTEP                         4           4           1          
  100CL  104 2.00000E-01          81                     1    4           1
 -4  DISP        4    1
 -5  D1          1    2    1    0
 -5  D2          1    2    2    0
 -5  D3          1    2    3    0
 -5  ALL         1    2    0    0    1ALL
 -1         5 0.00000E+00 0.00000E+00 0.00000E+00
 -1         6 0.00000E+00 0.00000E+00 0.00000E+00
 -1         7 0.00000E+00 0.00000E+00 0.00000E+00
 -1         8 0.00000E+00 0.00000E+00 0.00000E+00
 -1        21 0.00000E+00 0.00000E+00 0.00000E+00
 -1        22 0.00000E+00 0.00000E+00 0.00000E+00
 -1        23 0.00000E+00 0.00000E+00 0.00000E+00
 -1        24 0.00000E+00 0.00000E+00 0.00000E+00
 -1        25 0.00000E+00 0.00000E+00 0.00000E+00
 -1        26 0.00000E+00 0.00000E+00 0.00000E+00
 -1        27 0.00000E+00 0.00000E+00 0.00000E+00
 -1        28 0.00000E+00 0.00000E+00 0.00000E+00
 -1        29 0.00000E+00 0.00000E+00 0.00000E+00
 -1        30 0.00000E+00 0.00000E+00 0.00000E+00
 -1        31 0.00000E+00 0.00000E+00 0.00000E+00
 -1        32 0.00000E+00 0.00000E+00 0.00000E+00
 -1        44-4.51952E-05 9.74499E-04-1.37884E-04
 -1        45-5.51281E-06 7.38847E-04-2.37157E-04
 -1        46 1.81844E-05 5.48403E-04-2.52258E-04
 -1        47-3.07896E-05 2.28136E-04-1.69128E-04
 -1        48 3.07717E-05 2.28118E-04-1.69073E-04
 -1        49-1.80363E-05 5.48552E-04-2.52211E-04
 -1        50 5.37690E-06 7.38707E-04-2.37630E-04
 -1        51 4.62259E-05 9.75540E-04-1.39597E-04
 -1        74 4.06111E-05 9.86212E-04 1.34814E-04
 -1        75 2.43064E-06 7.45407E-04 2.36329E-04
 -1        76-1.65946E-05 5.44387E-04 2.52033E-04
 -1        77 3.18287E-05 2.26002E-04 1.69127E-04
 -1        89-4.16418E-05 9.87253E-04 1.36527E-04
 -1        90-2.29476E-06 7.45267E-04 2.36803E-04
 -1        91 1.64465E-05 5.44536E-04 2.51987E-04
 -1        92-3.18108E-05 2.25984E-04 1.69072E-04
 -1        98 0.00000E+00 0.00000E+00 0.00000E+00
 -1        99 0.00000E+00 0.00000E+00 0.00000E+00
 -1       100 0.00000E+00 0.00000E+00 0.00000E+00
 -1       101 0.00000E+00 0.00000E+00 0.00000E+00
 -1       102 0.00000E+00 0.00000E+00 0.00000E+00
 -1       124 1.29637E-05 8.93073E-04-1.34045E-04
 -1       125 1.43912E-07 9.96177E-04-1.40089E-04
 -1       126-1.23894E-05 8.92478E-04-1.33439E-04
 -1       127-2.33291E-08 7.49697E-04-2.22100E-04
 -1       128-7.97405E-06 5.69930E-04-2.68793E-04
 -1       129-5.24791E-09 5.41899E-04-2.74178E-04
 -1       130 8.04704E-06 5.69877E-04-2.68737E-04
 -1       131 4.92730E-09 2.27495E-04-1.61542E-04
 -1       153 4.86350E-05 1.17080E-03-6.12705E-05
 -1       154 2.85335E-06 1.03361E-03 7.85176E-07
 -1       155-4.81702E-05 1.17392E-03 6.16098E-05
 -1       156 1.38200E-06 7.81112E-04 5.90402E-07
 -1       157-8.12257E-06 4.95343E-04-1.07097E-04
 -1       158-1.03051E-06 5.29409E-04-1.73940E-07
 -1       159 7.91193E-06 4.94067E-04 1.06403E-04
 -1       160-4.19889E-07 1.94280E-04-8.59754E-08
 -1       182 1.28257E-05 8.83284E-04 1.30521E-04
 -1       183-1.43901E-07 1.00385E-03 1.37250E-04
 -1       184-1.34000E-05 8.83879E-04 1.31126E-04
 -1       185 2.33089E-08 7.54266E-04 2.20213E-04
 -1       186-7.92107E-06 5.71193E-04 2.69444E-04
 -1       187 5.22238E-09 5.39166E-04 2.75170E-04
 -1       188 7.84802E-06 5.71246E-04 2.69500E-04
 -1       189-4.93916E-09 2.26139E-04 1.61774E-04
 -1       211 4.75823E-05 1.17450E-03 6.22086E-05
 -1       212-2.85334E-06 1.03389E-03 7.85155E-07
 -1       213-4.80470E-05 1.17137E-03-6.18692E-05
 -1       214-1.38202E-06 7.81068E-04 5.90393E-07
 -1       215-7.96468E-06 4.94138E-04 1.06461E-04
 -1       216 1.03050E-06 5.29394E-04-1.73939E-07
 -1       217 8.17528E-06 4.95414E-04-1.07155E-04
 -1       218 4.19874E-07 1.94290E-04-8.59676E-08
 -1       250 1.32539E-07 1.00431E-03-4.67646E-05
 -1       251-6.15396E-07 7.37895E-04-1.57302E-06
 -1       252-6.04135E-12 7.62543E-04-8.09208E-07
 -1       253 6.15401E-07 7.37633E-04-1.57302E-06
 -1       254-1.32553E-07 1.00882E-03 4.99974E-05
 -1       255-5.63739E-12 8.32283E-04-2.15941E-07
 -1       256-2.00074E-08 4.67235E-04-1.24967E-04
 -1       257 3.02397E-07 5.35307E-04 1.34093E-07
 -1       258-1.56860E-11 4.59580E-04-2.69879E-08
 -1       259-3.02425E-07 5.35349E-04 1.34093E-07
 -1       260 1.99828E-08 4.65658E-04 1.24171E-04
 -1       261-6.26083E-12 2.14327E-04 1.62147E-07
 -3
    1PSTEP                         5           5           1          
  100CL  105 2.50000E-01          81                     1    5           1
 -4  DISP        4    1
 -5  D1          1    2    1    0
 -5  D2          1    2    2    0
 -5  D3          1    2    3    0
 -5  ALL         1    2    0    0    1ALL
 -1         5 0.00000E+00 0.00000E+00 0.00000E+00
 -1         6 0.00000E+00 0.00000E+00 0.00000E+00
 -1         7 0.00000E+00 0.00000E+00 0.00000E+00
 -1         8 0.00000E+00 0.00000E+00 0.00000E+00
 -1        21 0.00000E+00 0.00000E+00 0.00000E+00
 -1        22 0.00000E+00 0.00000E+00 0.00000E+00
 -1        23 0.00000E+00 0.00000E+00 0.00000E+00
 -1        24 0.00000E+00 0.00000E+00 0.00000E+00
 -1        25 0.00000E+00 0.00000E+00 0.00000E+00
 -1        26 0.00000E+00 0.00000E+00 0.00000E+00
 -1        27 0.00000E+00 0.00000E+00 0.00000E+00
 -1        28 0.00000E+00 0.00000E+00 0.00000E+00
 -1        29 0.00000E+00 0.00000E+00 0.00000E+00
 -1        30 0.00000E+00 0.00000E+00 0.00000E+00
 -1        31 0.00000E+00 0.00000E+00 0.00000E+00
 -1        32 0.00000E+00 0.00000E+00 0.00000E+00
 -1        44 4.41790E-05-7.68791E-04 1.23502E-04
 -1        45 3.97505E-06-5.70274E-04 1.88829E-04
 -1        46-1.07779E-05-4.24087E-04 1.98812E-04
 -1        47 2.31332E-05-1.74395E-04 1.31446E-04
 -1        48-2.33769E-05-1.74640E-04 1.32191E-04
 -1        49 1.27685E-05-4.22092E-04 1.99441E-04
 -1        50-5.82309E-06-5.72130E-04 1.82494E-04
 -1        51-3.03155E-05-7.54901E-04 1.00558E-04
 -1        74-3.82242E-05-7.73085E-04-1.14660E-04
 -1        75-1.59368E-06-5.78151E-04-1.88021E-04
 -1        76 1.02418E-05-4.18905E-04-1.99250E-04
 -1        77-2.44674E-05-1.72701E-04-1.31731E-04
 -1        89 2.43607E-05-7.59195E-04-9.17157E-05
 -1        90 3.44183E-06-5.80007E-04-1.81686E-04
 -1        91-1.22324E-05-4.16911E-04-1.99879E-04
 -1        92 2.47111E-05-1.72946E-04-1.32476E-04
 -1        98 0.00000E+00 0.00000E+00 0.00000E+00
 -1        99 0.00000E+00 0.00000E+00 0.00000E+00
 -1       100 0.00000E+00 0.00000E+00 0.00000E+00
 -1       101 0.00000E+00 0.00000E+00 0.00000E+00
 -1       102 0.00000E+00 0.00000E+00 0.00000E+00
 -1       124-7.92938E-06-6.85479E-04 1.04500E-04
 -1       125 1.90973E-06-7.60462E-04 9.53174E-05
 -1       126 1.56299E-05-6.93408E-04 1.12560E-04
 -1       127-3.03578E-07-5.83725E-04 1.71653E-04
 -1       128 5.98836E-06-4.37493E-04 2.08450E-04
 -1       129-8.40521E-08-4.14218E-04 2.14878E-04
 -1       130-5.02015E-06-4.38202E-04 2.09215E-04
 -1       131 6.52657E-08-1.74671E-04 1.26042E-04
 -1       153-3.26985E-05-9.18351E-04 5.49114E-05
 -1       154-4.65695E-06-8.08140E-04-3.34303E-06
 -1       155 3.05851E-05-9.19208E-04-5.76423E-05
 -1       156-6.35323E-07-6.01222E-04-6.61538E-07
 -1       157 7.37812E-06-3.82411E-04 8.48374E-05
 -1       158 3.39560E-07-4.08997E-04 7.43882E-08
 -1       159-7.23531E-06-3.80229E-04-8.39153E-05
 -1       160 3.98455E-07-1.48446E-04-2.08889E-07
 -1       182-1.51713E-05-6.82963E-04-1.08501E-04
 -1       183-1.90968E-06-7.70528E-04-9.55957E-05
 -1       184 7.47087E-06-6.75033E-04-1.00441E-04
 -1       185 3.03638E-07-5.87441E-04-1.70462E-04
 -1       186 5.34570E-06-4.39252E-04-2.10386E-04
 -1       187 8.40778E-08-4.12763E-04-2.16271E-04
 -1       188-6.31385E-06-4.38542E-04-2.09621E-04
 -1       189-6.52520E-08-1.73117E-04-1.26497E-04
 -1       211-3.84972E-05-9.11498E-04-4.95968E-05
 -1       212 4.65710E-06-8.04326E-04-3.34314E-06
 -1       213 4.06108E-05-9.10641E-04 4.68659E-05
 -1       214 6.35365E-07-6.01822E-04-6.61564E-07
 -1       215 6.52691E-06-3.79263E-04-8.31465E-05
 -1       216-3.39512E-07-4.09173E-04 7.43732E-08
 -1       217-6.66965E-06-3.81445E-04 8.40686E-05
 -1       218-3.98442E-07-1.48316E-04-2.08908E-07
 -1       250 1.76241E-06-7.76754E-04 3.47095E-05
 -1       251 1.11563E-06-5.76828E-04 9.29024E-07
 -1       252 4.39568E-11-5.96865E-04 1.05250E-06
 -1       253-1.11553E-06-5.80348E-04 9.29056E-07
 -1       254-1.76234E-06-7.82386E-04-3.79988E-05
 -1       255 2.56837E-11-6.43004E-04-2.58215E-07
 -1       256-2.73828E-07-3.58271E-04 9.69461E-05
 -1       257 1.27889E-07-4.13752E-04-3.87929E-07
 -1       258 2.07879E-11-3.54850E-04-1.01370E-07
 -1       259-1.27841E-07-4.13201E-04-3.87916E-07
 -1       260 2.73862E-07-3.57367E-04-9.67571E-05
 -1       261 5.57645E-12-1.63482E-04-5.05237E-09
 -3
    1PSTEP                         6           6           1          
  100CL  106 3.00000E-01          81                     1    6           1
 -4  DISP        4    1
 -5  D1          1    2    1    0
 -5  D2          1    2    2    0
 -5  D3          1    2    3    0
 -5  ALL         1    2    0    0    1ALL
 -1         5 0.00000E+00 0.00000E+00 0.00000E+00
 -1         6 0.00000E+00 0.00000E+00 0.00000E+00
 -1         7 0.00000E+00 0.00000E+00 0.00000E+00
 -1         8 0.00000E+00 0.00000E+00 0.00000E+00
 -1        21 0.00000E+00 0.00000E+00 0.00000E+00
 -1        22 0.00000E+00 0.00000E+00 0.00000E+00
 -1        23 0.00000E+00 0.00000E+00 0.00000E+00
 -1        24 0.00000E+00 0.00000E+00 0.00000E+00
 -1        25 0.00000E+00 0.00000E+00 0.00000E+00
 -1        26 0.00000E+00 0.00000E+00 0.00000E+00
 -1        27 0.00000E+00 0.00000E+00 0.00000E+00
 -1        28 0.00000E+00 0.00000E+00 0.00000E+00
 -1        29 0.00000E+00 0.00000E+00 0.00000E+00
 -1        30 0.00000E+00 0.00000E+00 0.00000E+00
 -1        31 0.00000E+00 0.00000E+00 0.00000E+00
 -1        32 0.00000E+00 0.00000E+00 0.00000E+00
 -1        44 5.01223E-06 5.16048E-04-1.76715E-05
 -1        45-1.27132E-05 4.22417E-04-1.19483E-04
 -1        46 1.63878E-05 3.03233E-04-1.51883E-04
 -1        47-1.76617E-05 1.27554E-04-9.87969E-05