    1C
    1UUSER                                                              
    1UDATE              12.july.2018                                    
    1UTIME              13:02:51                                        
    1UHOST                                                              
    1UPGM               CalculiX                                        
    1UVERSION           Version 2.13                             
    1UCOMPILETIME       jue jun 14 00:40:39 CEST 2018                    
    1UDIR                                                               
    1UDBN                                                               
    1UMAT    1EL                                                        
    2C                            81                                     1
 -1         5 0.00000E+00 0.00000E+00 8.00000E+00
 -1         6 1.00000E+00 0.00000E+00 8.00000E+00
 -1         7 1.00000E+00 1.00000E+00 8.00000E+00
 -1         8 0.00000E+00 1.00000E+00 8.00000E+00
 -1        21 2.50000E-01 0.00000E+00 8.00000E+00
 -1        22 5.00000E-01 0.00000E+00 8.00000E+00
 -1        23 7.50000E-01 0.00000E+00 8.00000E+00
 -1        24 1.00000E+00 2.50000E-01 8.00000E+00
 -1        25 1.00000E+00 5.00000E-01 8.00000E+00
 -1        26 1.00000E+00 7.50000E-01 8.00000E+00
 -1        27 7.50000E-01 1.00000E+00 8.00000E+00
 -1        28 5.00000E-01 1.00000E+00 8.00000E+00
 -1        29 2.50000E-01 1.00000E+00 8.00000E+00
 -1        30 0.00000E+00 7.50000E-01 8.00000E+00
 -1        31 0.00000E+00 5.00000E-01 8.00000E+00
 -1        32 0.00000E+00 2.50000E-01 8.00000E+00
 -1        44 1.00000E+00 0.00000E+00 6.00000E+00
 -1        45 1.00000E+00 0.00000E+00 6.50000E+00
 -1        46 1.00000E+00 0.00000E+00 7.00000E+00
 -1        47 1.00000E+00 0.00000E+00 7.50000E+00
 -1        48 0.00000E+00 0.00000E+00 7.50000E+00
 -1        49 0.00000E+00 0.00000E+00 7.00000E+00
 -1        50 0.00000E+00 0.00000E+00 6.50000E+00
 -1        51 0.00000E+00 0.00000E+00 6.00000E+00
 -1        74 1.00000E+00 1.00000E+00 6.00000E+00
 -1        75 1.00000E+00 1.00000E+00 6.50000E+00
 -1        76 1.00000E+00 1.00000E+00 7.00000E+00
 -1        77 1.00000E+00 1.00000E+00 7.50000E+00
 -1        89 0.00000E+00 1.00000E+00 6.00000E+00
 -1        90 0.00000E+00 1.00000E+00 6.50000E+00
 -1        91 0.00000E+00 1.00000E+00 7.00000E+00
 -1        92 0.00000E+00 1.00000E+00 7.50000E+00
 -1        98 5.00000E-01 2.50000E-01 8.00000E+00
 -1        99 2.50000E-01 5.00000E-01 8.00000E+00
 -1       100 5.00000E-01 5.00000E-01 8.00000E+00
 -1       101 7.50000E-01 5.00000E-01 8.00000E+00
 -1       102 5.00000E-01 7.50000E-01 8.00000E+00
 -1       124 2.50000E-01 0.00000E+00 6.00000E+00
 -1       125 5.00000E-01 0.00000E+00 6.00000E+00
 -1       126 7.50000E-01 0.00000E+00 6.00000E+00
 -1       127 5.00000E-01 0.00000E+00 6.50000E+00
 -1       128 2.50000E-01 0.00000E+00 7.00000E+00
 -1       129 5.00000E-01 0.00000E+00 7.00000E+00
 -1       130 7.50000E-01 0.00000E+00 7.00000E+00
 -1       131 5.00000E-01 0.00000E+00 7.50000E+00
 -1       153 1.00000E+00 2.50000E-01 6.00000E+00
 -1       154 1.00000E+00 5.00000E-01 6.00000E+00
 -1       155 1.00000E+00 7.50000E-01 6.00000E+00
 -1       156 1.00000E+00 5.00000E-01 6.50000E+00
 -1       157 1.00000E+00 2.50000E-01 7.00000E+00
 -1       158 1.00000E+00 5.00000E-01 7.00000E+00
 -1       159 1.00000E+00 7.50000E-01 7.00000E+00
 -1       160 1.00000E+00 5.00000E-01 7.50000E+00
 -1       182 7.50000E-01 1.00000E+00 6.00000E+00
 -1       183 5.00000E-01 1.00000E+00 6.00000E+00
 -1       184 2.50000E-01 1.00000E+00 6.00000E+00
 -1       185 5.00000E-01 1.00000E+00 6.50000E+00
 -1       186 7.50000E-01 1.00000E+00 7.00000E+00
 -1       187 5.00000E-01 1.00000E+00 7.00000E+00
 -1       188 2.50000E-01 1.00000E+00 7.00000E+00
 -1       189 5.00000E-01 1.00000E+00 7.50000E+00
 -1       211 0.00000E+00 7.50000E-01 6.00000E+00
 -1       212 0.00000E+00 5.00000E-01 6.00000E+00
 -1       213 0.00000E+00 2.50000E-01 6.00000E+00
 -1       214 0.00000E+00 5.00000E-01 6.50000E+00
 -1       215 0.00000E+00 7.50000E-01 7.00000E+00
 -1       216 0.00000E+00 5.00000E-01 7.00000E+00
 -1       217 0.00000E+00 2.50000E-01 7.00000E+00
 -1       218 0.00000E+00 5.00000E-01 7.50000E+00
 -1       250 5.00000E-01 2.50000E-01 6.00000E+00
 -1       251 2.50000E-01 5.00000E-01 6.00000E+00
 -1       252 5.00000E-01 5.00000E-01 6.00000E+00
 -1       253 7.50000E-01 5.00000E-01 6.00000E+00
 -1       254 5.00000E-01 7.50000E-01 6.00000E+00
 -1       255 5.00000E-01 5.00000E-01 6.50000E+00
 -1       256 5.00000E-01 2.50000E-01 7.00000E+00
 -1       257 2.50000E-01 5.00000E-01 7.00000E+00
 -1       258 5.00000E-01 5.00000E-01 7.00000E+00
 -1       259 7.50000E-01 5.00000E-01 7.00000E+00
 -1       260 5.00000E-01 7.50000E-01 7.00000E+00
 -1       261 5.00000E-01 5.00000E-01 7.50000E+00
 -3
    3C                             8                                     1
 -1        25    4    0    1
 -2        51       125       252       212        49       129       258       216       124       250
 -2       251       213        50       127       255       214       128       256       257       217
 -1        26    4    0    1
 -2       125        44       154       252       129        46       158       258       126       153
 -2       253       250       127        45       156       255       130       157       259       256
 -1        27    4    0    1
 -2       212       252       183        89       216       258       187        91       251       254
 -2       184       211       214       255       185        90       257       260       188       215
 -1        28    4    0    1
 -2       252       154        74       183       258       158        76       187       253       155
 -2       182       254       255       156        75       185       259       159       186       260
 -1        29    4    0    1
 -2        49       129       258       216         5        22       100        31       128       256
 -2       257       217        48       131       261       218        21        98        99        32
 -1        30    4    0    1
 -2       129        46       158       258        22         6        25       100       130       157
 -2       259       256       131        47       160       261        23        24       101        98
 -1        31    4    0    1
 -2       216       258       187        91        31       100        28         8       257       260
 -2       188       215       218       261       189        92        99       102        29        30
 -1        32    4    0    1
 -2       258       158        76       187       100        25         7        28       259       159
 -2       186       260       261       160        77       189       101        26        27       102
 -3
    1PSTEP                         1           1           1          
  100CL  101 5.00000E-02          81                     1    1           1
 -4  DISP        4    1
 -5  D1          1    2    1    0
 -5  D2          1    2    2    0
 -5  D3          1    2    3    0
 -5  ALL         1    2    0    0    1ALL
 -1         5 0.00000E+00 0.00000E+00 0.00000E+00
 -1         6 0.00000E+00 0.00000E+00 0.00000E+00
 -1         7 0.00000E+00 0.00000E+00 0.00000E+00
 -1         8 0.00000E+00 0.00000E+00 0.00000E+00
 -1        21 0.00000E+00 0.00000E+00 0.00000E+00
 -1        22 0.00000E+00 0.00000E+00 0.00000E+00
 -1        23 0.00000E+00 0.00000E+00 0.00000E+00
 -1        24 0.00000E+00 0.00000E+00 0.00000E+00
 -1        25 0.00000E+00 0.00000E+00 0.00000E+00
 -1        26 0.00000E+00 0.00000E+00 0.00000E+00
 -1        27 0.00000E+00 0.00000E+00 0.00000E+00
 -1        28 0.00000E+00 0.00000E+00 0.00000E+00
 -1        29 0.00000E+00 0.00000E+00 0.00000E+00
 -1        30 0.00000E+00 0.00000E+00 0.00000E+00
 -1        31 0.00000E+00 0.00000E+00 0.00000E+00
 -1        32 0.00000E+00 0.00000E+00 0.00000E+00
 -1        44 1.47239E-04-1.99708E-03 2.87977E-04
 -1        45 4.43895E-05-1.54643E-03 4.57599E-04
 -1        46-5.09979E-05-1.13833E-03 5.45974E-04
 -1        47 7.08927E-05-4.52036E-04 3.49530E-04
 -1        48-7.08928E-05-4.52036E-04 3.49530E-04
 -1        49 5.09986E-05-1.13833E-03 5.45973E-04
 -1        50-4.43874E-05-1.54643E-03 4.57597E-04
 -1        51-1.47237E-04-1.99707E-03 2.87968E-04
 -1        74-1.28047E-04-2.08103E-03-2.93741E-04
 -1        75-2.50432E-05-1.58199E-03-4.58281E-04
 -1        76 3.83488E-05-1.12134E-03-5.46477E-04
 -1        77-7.72497E-05-4.38898E-04-3.51022E-04
 -1        89 1.28049E-04-2.08103E-03-2.93747E-04
 -1        90 2.50473E-05-1.58199E-03-4.58283E-04
 -1        91-3.83476E-05-1.12134E-03-5.46477E-04
 -1        92 7.72503E-05-4.38898E-04-3.51023E-04
 -1        98 0.00000E+00 0.00000E+00 0.00000E+00
 -1        99 0.00000E+00 0.00000E+00 0.00000E+00
 -1       100 0.00000E+00 0.00000E+00 0.00000E+00
 -1       101 0.00000E+00 0.00000E+00 0.00000E+00
 -1       102 0.00000E+00 0.00000E+00 0.00000E+00
 -1       124 4.80072E-05-1.82921E-03 2.69132E-04
 -1       125 1.85310E-09-2.22187E-03 2.85889E-04
 -1       126-4.80047E-05-1.82921E-03 2.69138E-04
 -1       127 1.69140E-10-1.61675E-03 5.36289E-04
 -1       128-5.48938E-06-1.19619E-03 5.76516E-04
 -1       129 8.45942E-10-1.10128E-03 5.82271E-04
 -1       130 5.49065E-06-1.19619E-03 5.76516E-04
 -1       131-9.55627E-11-4.65160E-04 3.42987E-04
 -1       153-1.15446E-04-2.33095E-03 1.24572E-04
 -1       154-1.33527E-05-1.93748E-03-1.76886E-06
 -1       155 1.16759E-04-2.35075E-03-1.29462E-04
 -1       156-1.07430E-05-1.75872E-03-6.21237E-06
 -1       157 1.91108E-05-9.65778E-04 2.33053E-04
 -1       158 7.94433E-06-9.81587E-04-2.86527E-06
 -1       159-1.71175E-05-9.63751E-04-2.35234E-04
 -1       160 3.73973E-06-3.88376E-04 5.10571E-07
 -1       182 4.08741E-05-1.79416E-03-2.74263E-04
 -1       183 3.10979E-09-2.29046E-03-2.89217E-04
 -1       184-4.08703E-05-1.79417E-03-2.74268E-04
 -1       185 6.14382E-10-1.64128E-03-5.33489E-04
 -1       186-7.36966E-06-1.21579E-03-5.80130E-04
 -1       187 1.65743E-09-1.10438E-03-5.85157E-04
 -1       188 7.37195E-06-1.21579E-03-5.80130E-04
 -1       189 1.89556E-10-4.63873E-04-3.44222E-04
 -1       211-1.16758E-04-2.35075E-03-1.29461E-04
 -1       212 1.33539E-05-1.93748E-03-1.76761E-06
 -1       213 1.15448E-04-2.33094E-03 1.24572E-04
 -1       214 1.07452E-05-1.75872E-03-6.21341E-06
 -1       215 1.71187E-05-9.63751E-04-2.35235E-04
 -1       216-7.94335E-06-9.81586E-04-2.86613E-06
 -1       217-1.91100E-05-9.65777E-04 2.33052E-04
 -1       218-3.73918E-06-3.88375E-04 5.10587E-07
 -1       250 1.96241E-09-2.42010E-03 1.27091E-04
 -1       251 3.62180E-06-1.50939E-03 3.14858E-09
 -1       252 1.34687E-09-1.97665E-03 6.58930E-07
 -1       253-3.61947E-06-1.50939E-03 2.47938E-09
 -1       254 2.56073E-09-2.45278E-03-1.35761E-04
 -1       255 1.12734E-09-1.67267E-03-2.14099E-06
 -1       256 5.34594E-10-9.86093E-04 2.54066E-04
 -1       257-3.69305E-06-1.12568E-03-1.34177E-06
 -1       258 4.13831E-10-1.04247E-03-1.60800E-06
 -1       259 3.69385E-06-1.12568E-03-1.34136E-06
 -1       260 9.51251E-10-9.87445E-04-2.55994E-04
 -1       261 2.85312E-10-4.34405E-04-3.26643E-07
 -3
    1PSTEP                         2           2           1          
  100CL  102 1.00000E-01          81                     1    2           1
 -4  DISP        4    1
 -5  D1          1    2    1    0
 -5  D2          1    2    2    0
 -5  D3          1    2    3    0
 -5  ALL         1    2    0    0    1ALL
 -1         5 0.00000E+00 0.00000E+00 0.00000E+00
 -1         6 0.00000E+00 0.00000E+00 0.00000E+00
 -1         7 0.00000E+00 0.00000E+00 0.00000E+00
 -1         8 0.00000E+00 0.00000E+00 0.00000E+00
 -1        21 0.00000E+00 0.00000E+00 0.00000E+00
 -1        22 0.00000E+00 0.00000E+00 0.00000E+00
 -1        23 0.00000E+00 0.00000E+00 0.00000E+00
 -1        24 0.00000E+00 0.00000E+00 0.00000E+00
 -1        25 0.00000E+00 0.00000E+00 0.00000E+00
 -1        26 0.00000E+00 0.00000E+00 0.00000E+00
 -1        27 0.00000E+00 0.00000E+00 0.00000E+00
 -1        28 0.00000E+00 0.00000E+00 0.00000E+00
 -1        29 0.00000E+00 0.00000E+00 0.00000E+00
 -1        30 0.00000E+00 0.00000E+00 0.00000E+00
 -1        31 0.00000E+00 0.00000E+00 0.00000E+00
 -1        32 0.00000E+00 0.00000E+00 0.00000E+00
 -1        44-1.23960E-04 1.61158E-03-2.30888E-04
 -1        45-2.94718E-05 1.24482E-03-3.75923E-04
 -1        46 4.00083E-05 9.12168E-04-4.32438E-04
 -1        47-5.47745E-05 3.67723E-04-2.81569E-04
 -1        48 5.53643E-05 3.68008E-04-2.82461E-04
 -1        49-3.81016E-05 9.12281E-04-4.34160E-04
 -1        50 3.35873E-05 1.24518E-03-3.78208E-04
 -1        51 1.30265E-04 1.61124E-03-2.33205E-04
 -1        74 1.19759E-04 1.65588E-03 2.33255E-04
 -1        75 2.36185E-05 1.26581E-03 3.75932E-04
 -1        76-3.20484E-05 8.99147E-04 4.33046E-04
 -1        77 5.81047E-05 3.61505E-04 2.82826E-04
 -1        89-1.13381E-04 1.65635E-03 2.30971E-04
 -1        90-1.94568E-05 1.26546E-03 3.73645E-04
 -1        91 3.39663E-05 8.99079E-04 4.31311E-04
 -1        92-5.75021E-05 3.61229E-04 2.81920E-04
 -1        98 0.00000E+00 0.00000E+00 0.00000E+00
 -1        99 0.00000E+00 0.00000E+00 0.00000E+00
 -1       100 0.00000E+00 0.00000E+00 0.00000E+00
 -1       101 0.00000E+00 0.00000E+00 0.00000E+00
 -1       102 0.00000E+00 0.00000E+00 0.00000E+00
 -1       124-1.67282E-06 1.47132E-03-2.18231E-04
 -1       125 3.27187E-06 1.75157E-03-2.28538E-04
 -1       126 8.06557E-06 1.47145E-03-2.16938E-04
 -1       127 1.93070E-06 1.29272E-03-4.13955E-04
 -1       128-1.74740E-06 9.58122E-04-4.61747E-04
 -1       129 9.67723E-07 8.89006E-04-4.68615E-04
 -1       130 3.63810E-06 9.58077E-04-4.60928E-04
 -1       131 2.16840E-07 3.75874E-04-2.76003E-04
 -1       153 1.07374E-04 1.89603E-03-1.01425E-04
 -1       154 1.08826E-05 1.63566E-03 1.15649E-06
 -1       155-1.03167E-04 1.90356E-03 1.03706E-04
 -1       156 8.48114E-06 1.39292E-03 3.59544E-06
 -1       157-1.86026E-05 7.90484E-04-1.85212E-04
 -1       158-3.13116E-06 8.10319E-04 1.71239E-06
 -1       159 2.07316E-05 7.87790E-04 1.86774E-04
 -1       160-1.38926E-06 3.12288E-04 4.15835E-07
 -1       182 2.44616E-06 1.45191E-03 2.18960E-04
 -1       183 3.33414E-06 1.79135E-03 2.29392E-04
 -1       184 4.04264E-06 1.45211E-03 2.17668E-04
 -1       185 1.94423E-06 1.30295E-03 4.12837E-04
 -1       186-1.01241E-06 9.63594E-04 4.61946E-04
 -1       187 9.82376E-07 8.82890E-04 4.68058E-04
 -1       188 2.92371E-06 9.63571E-04 4.61125E-04
 -1       189 2.21326E-07 3.72640E-04 2.75438E-04
 -1       211 1.08791E-04 1.90370E-03 1.01363E-04
 -1       212-6.08383E-06 1.63565E-03-6.01665E-07
 -1       213-1.01800E-04 1.89594E-03-1.03688E-04
 -1       214-3.68777E-06 1.39296E-03 1.53096E-06
 -1       215-1.89592E-05 7.87770E-04 1.85075E-04
 -1       216 4.68339E-06 8.10315E-04-1.05238E-07
 -1       217 2.03711E-05 7.90523E-04-1.86922E-04
 -1       218 2.16498E-06 3.12295E-04-6.54859E-07
 -1       250 3.64555E-06 1.89218E-03-1.01437E-04
 -1       251 9.36914E-07 1.21436E-03-9.64691E-07
 -1       252 3.94729E-06 1.52411E-03 1.90071E-06
 -1       253 5.43339E-06 1.21436E-03 1.22662E-06
 -1       254 3.67695E-06 1.91394E-03 1.03166E-04
 -1       255 1.75926E-06 1.35988E-03 2.60786E-07
 -1       256 1.13866E-06 7.86284E-04-2.05155E-04
 -1       257 2.49890E-06 9.06782E-04-1.87463E-07
 -1       258 1.28207E-06 8.18424E-04 4.08081E-08
 -1       259-4.67470E-07 9.06783E-04 4.06990E-07
 -1       260 1.14597E-06 7.82659E-04 2.05530E-04
 -1       261 2.26095E-07 3.49988E-04 1.41624E-07
 -3
    1PSTEP                         3           3           1          
  100CL  103 1.50000E-01          81                     1    3           1
 -4  DISP        4    1
 -5  D1          1    2    1    0
 -5  D2          1    2    2    0
 -5  D3          1    2    3    0
 -5  ALL         1    2    0    0    1ALL
 -1         5 0.00000E+00 0.00000E+00 0.00000E+00
 -1         6 0.00000E+00 0.00000E+00 0.00000E+00
 -1         7 0.00000E+00 0.00000E+00 0.00000E+00
 -1         8 0.00000E+00 0.00000E+00 0.00000E+00
 -1        21 0.00000E+00 0.00000E+00 0.00000E+00
 -1        22 0.00000E+00 0.00000E+00 0.00000E+00
 -1        23 0.00000E+00 0.00000E+00 0.00000E+00
 -1        24 0.00000E+00 0.00000E+00 0.00000E+00
 -1        25 0.00000E+00 0.00000E+00 0.00000E+00
 -1        26 0.00000E+00 0.00000E+00 0.00000E+00
 -1        27 0.00000E+00 0.00000E+00 0.00000E+00
 -1        28 0.00000E+00 0.00000E+00 0.00000E+00
 -1        29 0.00000E+00 0.00000E+00 0.00000E+00
 -1        30 0.00000E+00 0.00000E+00 0.00000E+00
 -1        31 0.00000E+00 0.00000E+00 0.00000E+00
 -1        32 0.00000E+00 0.00000E+00 0.00000E+00
 -1        44 1.16259E-04-1.28318E-03 1.85383E-04
 -1        45 2.71636E-05-9.96059E-04 2.99621E-04
 -1        46-3.17457E-05-7.19040E-04 3.42673E-04
 -1        47 4.34333E-05-2.91443E-04 2.24714E-04
 -1        48-4.34708E-05-2.91383E-04 2.24699E-04
 -1        49 3.16158E-05-7.18912E-04 3.42665E-04
 -1        50-2.72018E-05-9.95932E-04 2.99575E-04
 -1        51-1.16764E-04-1.28267E-03 1.85373E-04
 -1        74-1.09276E-04-1.30499E-03-1.85313E-04
 -1        75-2.06067E-05-1.00564E-03-2.98522E-04
 -1        76 2.80028E-05-7.13411E-04-3.42040E-04
 -1        77-4.50601E-05-2.88320E-04-2.24796E-04
 -1        89 1.09903E-04-1.30442E-03-1.85299E-04
 -1        90 2.07592E-05-1.00553E-03-2.98520E-04
 -1        91-2.78180E-05-7.13278E-04-3.42078E-04
 -1        92 4.51182E-05-2.88267E-04-2.24807E-04
 -1        98 0.00000E+00 0.00000E+00 0.00000E+00
 -1        99 0.00000E+00 0.00000E+00 0.00000E+00
 -1       100 0.00000E+00 0.00000E+00 0.00000E+00
 -1       101 0.00000E+00 0.00000E+00 0.00000E+00
 -1       102 0.00000E+00 0.00000E+00 0.00000E+00
 -1       124-8.84326E-06-1.17120E-03 1.74567E-04
 -1       125-5.19611E-08-1.40350E-03 1.83301E-04
 -1       126 8.54986E-06-1.17150E-03 1.74783E-04
 -1       127-1.15106E-07-1.02916E-03 3.31447E-04
 -1       128 3.61315E-06-7.60266E-04 3.67420E-04
 -1       129 4.88845E-09-7.07151E-04 3.74457E-04
 -1       130-3.67443E-06-7.60322E-04 3.67391E-04
 -1       131-2.59394E-08-2.97738E-04 2.18997E-04
 -1       153-9.76305E-05-1.51144E-03 8.22955E-05
 -1       154-2.75817E-06-1.34164E-03 2.36716E-07
 -1       155 9.76224E-05-1.51701E-03-8.21147E-05
 -1       156-3.03942E-06-1.11629E-03-8.18253E-07
 -1       157 2.00482E-05-6.27687E-04 1.47883E-04
 -1       158 1.85901E-06-6.39984E-04-5.73805E-07
 -1       159-2.00396E-05-6.26280E-04-1.47873E-04
 -1       160 8.64702E-07-2.43694E-04 2.15804E-08
 -1       182-9.05934E-06-1.16149E-03-1.74934E-04
 -1       183 1.33018E-07-1.41864E-03-1.82736E-04
 -1       184 9.49708E-06-1.16116E-03-1.74733E-04
 -1       185 1.62295E-07-1.03393E-03-3.28999E-04
 -1       186 2.87228E-06-7.62604E-04-3.67501E-04
 -1       187 2.81178E-08-7.03533E-04-3.74356E-04
 -1       188-2.75150E-06-7.62543E-04-3.67549E-04
 -1       189 3.44728E-08-2.96248E-04-2.18926E-04
 -1       211-9.72929E-05-1.51657E-03-8.23414E-05
 -1       212 2.73544E-06-1.34130E-03 2.68948E-07
 -1       213 9.73367E-05-1.51102E-03 8.25312E-05
 -1       214 3.12342E-06-1.11603E-03-8.29684E-07
 -1       215 2.01330E-05-6.26183E-04-1.47863E-04
 -1       216-1.85316E-06-6.39926E-04-6.00185E-07
 -1       217-2.01066E-05-6.27593E-04 1.47830E-04
 -1       218-8.50194E-07-2.43638E-04-4.66172E-11
 -1       250 2.21554E-08-1.52702E-03 8.16690E-05
 -1       251 8.24260E-07-9.59454E-04 6.89940E-07
 -1       252 6.36376E-08-1.22317E-03 1.64974E-06
 -1       253-7.67966E-07-9.59609E-04 7.37788E-07
 -1       254 8.31866E-08-1.53184E-03-8.14399E-05
 -1       255 1.37178E-08-1.08787E-03-1.42109E-07
 -1       256 1.32273E-08-6.19878E-04 1.63983E-04
 -1       257-7.45290E-07-7.24077E-04 2.96430E-08
 -1       258 2.80199E-08-6.45554E-04-7.53905E-08
 -1       259 7.75859E-07-7.24111E-04 2.80135E-08
 -1       260 3.15836E-08-6.18666E-04-1.63845E-04
 -1       261 2.68887E-09-2.76689E-04-1.53808E-07
 -3
    1PSTEP                         4           4           1          
  100CL  104 2.00000E-01          81                     1    4           1
 -4  DISP        4    1
 -5  D1          1    2    1    0
 -5  D2          1    2    2    0
 -5  D3          1    2    3    0
 -5  ALL         1    2    0    0    1ALL
 -1         5 0.00000E+00 0.00000E+00 0.00000E+00
 -1         6 0.00000E+00 0.00000E+00 0.00000E+00
 -1         7 0.00000E+00 0.00000E+00 0.00000E+00
 -1         8 0.00000E+00 0.00000E+00 0.00000E+00
 -1        21 0.00000E+00 0.00000E+00 0.00000E+00
 -1        22 0.00000E+00 0.00000E+00 0.00000E+00
 -1        23 0.00000E+00 0.00000E+00 0.00000E+00
 -1        24 0.00000E+00 0.00000E+00 0.00000E+00
 -1        25 0.00000E+00 0.00000E+00 0.00000E+00
 -1        26 0.00000E+00 0.00000E+00 0.00000E+00
 -1        27 0.00000E+00 0.00000E+00 0.00000E+00
 -1        28 0.00000E+00 0.00000E+00 0.00000E+00
 -1        29 0.00000E+00 0.00000E+00 0.00000E+00
 -1        30 0.00000E+00 0.00000E+00 0.00000E+00
 -1        31 0.00000E+00 0.00000E+00 0.00000E+00
 -1        32 0.00000E+00 0.00000E+00 0.00000E+00
 -1        44-9.38659E-05 9.88924E-04-1.43961E-04
 -1        45-2.12498E-05 7.69185E-04-2.31653E-04
 -1        46 2.55099E-05 5.61239E-04-2.65413E-04
 -1        47-3.32994E-05 2.27359E-04-1.74753E-04
 -1        48 3.33016E-05 2.27359E-04-1.74754E-04
 -1        49-2.55039E-05 5.61249E-04-2.65416E-04
 -1        50 2.12647E-05 7.69172E-04-2.31661E-04
 -1        51 9.38690E-05 9.88972E-04-1.43990E-04
 -1        74 9.64394E-05 9.87061E-04 1.44018E-04
 -1        75 2.29706E-05 7.67100E-04 2.32148E-04
 -1        76-2.61202E-05 5.62232E-04 2.65414E-04
 -1        77 3.27713E-05 2.27892E-04 1.74651E-04
 -1        89-9.64995E-05 9.87070E-04 1.44070E-04
 -1        90-2.29348E-05 7.67094E-04 2.32151E-04
 -1        91 2.61081E-05 5.62241E-04 2.65405E-04
 -1        92-3.27663E-05 2.27888E-04 1.74640E-04
 -1        98 0.00000E+00 0.00000E+00 0.00000E+00
 -1        99 0.00000E+00 0.00000E+00 0.00000E+00
 -1       100 0.00000E+00 0.00000E+00 0.00000E+00
 -1       101 0.00000E+00 0.00000E+00 0.00000E+00
 -1       102 0.00000E+00 0.00000E+00 0.00000E+00
 -1       124 2.73865E-06 9.09345E-04-1.35750E-04
 -1       125 5.37174E-09 1.08798E-03-1.42403E-04
 -1       126-2.73045E-06 9.09321E-04-1.35727E-04
 -1       127 4.29887E-09 7.99979E-04-2.56202E-04
 -1       128-1.96689E-06 5.89672E-04-2.84962E-04
 -1       129 4.68086E-09 5.47145E-04-2.90495E-04
 -1       130 1.97419E-06 5.89668E-04-2.84962E-04
 -1       131 8.56598E-10 2.30941E-04-1.69752E-04
 -1       153 7.78132E-05 1.17922E-03-6.39850E-05
 -1       154 5.01681E-07 1.04573E-03 2.78831E-07
 -1       155-7.89558E-05 1.17751E-03 6.38583E-05
 -1       156-7.70006E-08 8.65289E-04-3.61304E-07
 -1       157-1.56414E-05 4.87597E-04-1.14293E-04
 -1       158-8.84849E-08 4.97957E-04-5.80341E-08
 -1       159 1.58810E-05 4.88232E-04 1.14428E-04
 -1       160 4.00446E-08 1.89205E-04 1.06622E-08
 -1       182 5.84550E-06 9.10973E-04 1.35676E-04
 -1       183 2.77795E-08 1.08615E-03 1.42399E-04
 -1       184-5.84394E-06 9.10973E-04 1.35655E-04
 -1       185-3.29496E-09 8.00221E-04 2.56730E-04
 -1       186-2.68859E-06 5.89381E-04 2.84896E-04
 -1       187 1.24806E-08 5.47122E-04 2.90497E-04
 -1       188 2.69464E-06 5.89385E-04 2.84902E-04
 -1       189-3.47436E-10 2.30948E-04 1.69695E-04
 -1       211 7.89445E-05 1.17750E-03 6.38638E-05
 -1       212-4.66026E-07 1.04571E-03 2.57492E-07
 -1       213-7.77959E-05 1.17923E-03-6.39859E-05
 -1       214 8.34430E-08 8.65296E-04-3.69883E-07
 -1       215-1.58808E-05 4.88233E-04 1.14424E-04
 -1       216 1.01429E-07 4.97950E-04-6.15517E-08
 -1       217 1.56507E-05 4.87598E-04-1.14302E-04
 -1       218-3.79622E-08 1.89206E-04 1.00185E-08
 -1       250 6.99771E-09 1.17362E-03-6.36729E-05
 -1       251 1.08231E-06 7.43159E-04 4.38360E-07
 -1       252 6.65330E-09 9.48270E-04 2.39123E-07
 -1       253-1.05881E-06 7.43169E-04 4.38203E-07
 -1       254 1.81387E-08 1.17535E-03 6.33618E-05
 -1       255 7.56592E-09 8.46095E-04-2.14134E-09
 -1       256 2.96405E-09 4.81709E-04-1.27491E-04
 -1       257-2.43745E-07 5.62347E-04-6.24399E-08
 -1       258 1.78875E-09 4.98984E-04-5.98866E-08
 -1       259 2.51950E-07 5.62351E-04-5.82007E-08
 -1       260 7.10428E-09 4.81111E-04 1.27474E-04
 -1       261 1.63403E-09 2.14234E-04 1.32442E-08
 -3
    1PSTEP                         5           5           1          
  100CL  105 2.50000E-01          81                     1    5           1
 -4  DISP        4    1
 -5  D1          1    2    1    0
 -5  D2          1    2    2    0
 -5  D3          1    2    3    0
 -5  ALL         1    2    0    0    1ALL
 -1         5 0.00000E+00 0.00000E+00 0.00000E+00
 -1         6 0.00000E+00 0.00000E+00 0.00000E+00
 -1         7 0.00000E+00 0.00000E+00 0.00000E+00
 -1         8 0.00000E+00 0.00000E+00 0.00000E+00
 -1        21 0.00000E+00 0.00000E+00 0.00000E+00
 -1        22 0.00000E+00 0.00000E+00 0.00000E+00
 -1        23 0.00000E+00 0.00000E+00 0.00000E+00
 -1        24 0.00000E+00 0.00000E+00 0.00000E+00
 -1        25 0.00000E+00 0.00000E+00 0.00000E+00
 -1        26 0.00000E+00 0.00000E+00 0.00000E+00
 -1        27 0.00000E+00 0.00000E+00 0.00000E+00
 -1        28 0.00000E+00 0.00000E+00 0.00000E+00
 -1        29 0.00000E+00 0.00000E+00 0.00000E+00
 -1        30 0.00000E+00 0.00000E+00 0.00000E+00
 -1        31 0.00000E+00 0.00000E+00 0.00000E+00
 -1        32 0.00000E+00 0.00000E+00 0.00000E+00
 -1        44 7.10553E-05-7.51388E-04 1.09122E-04
 -1        45 1.62732E-05-5.83614E-04 1.75297E-04
 -1        46-1.86027E-05-4.22209E-04 2.00919E-04
 -1        47 2.53935E-05-1.71026E-04 1.31930E-04
 -1        48-2.53712E-05-1.71010E-04 1.31944E-04
 -1        49 1.88925E-05-4.22079E-04 2.00835E-04
 -1        50-1.61476E-05-5.83628E-04 1.75165E-04
 -1        51-7.03024E-05-7.51411E-04 1.08867E-04
 -1        74-6.85933E-05-7.55896E-04-1.09493E-04
 -1        75-1.41811E-05-5.85798E-04-1.74833E-04
 -1        76 1.79353E-05-4.20981E-04-2.00550E-04
 -1        77-2.58618E-05-1.70291E-04-1.31910E-04
 -1        89 6.93703E-05-7.55095E-04-1.09404E-04
 -1        90 1.46292E-05-5.86003E-04-1.75037E-04
 -1        91-1.77601E-05-4.20801E-04-2.00766E-04
 -1        92 2.59467E-05-1.70307E-04-1.32055E-04
 -1        98 0.00000E+00 0.00000E+00 0.00000E+00
 -1        99 0.00000E+00 0.00000E+00 0.00000E+00
 -1       100 0.00000E+00 0.00000E+00 0.00000E+00
 -1       101 0.00000E+00 0.00000E+00 0.00000E+00
 -1       102 0.00000E+00 0.00000E+00 0.00000E+00
 -1       124-4.51547E-06-6.87439E-04 1.02883E-04
 -1       125-4.11407E-08-8.24977E-04 1.07307E-04
 -1       126 4.84435E-06-6.87397E-04 1.02641E-04
 -1       127 2.27197E-07-6.04725E-04 1.94964E-04
 -1       128 1.90105E-06-4.45739E-04 2.15505E-04
 -1       129 1.53974E-09-4.13969E-04 2.19797E-04
 -1       130-1.75595E-06-4.45805E-04 2.15623E-04
 -1       131 2.89448E-08-1.74435E-04 1.28334E-04
 -1       153-5.91193E-05-8.88218E-04 4.83109E-05
 -1       154-7.36855E-07-7.90326E-04 6.80214E-09
 -1       155 5.87740E-05-8.89148E-04-4.83469E-05
 -1       156-3.72553E-07-6.56413E-04-3.82859E-07
 -1       157 1.22717E-05-3.67743E-04 8.68129E-05
 -1       158 3.48762E-07-3.74344E-04-5.64852E-08
 -1       159-1.20946E-05-3.67487E-04-8.66568E-05
 -1       160 2.50474E-07-1.42407E-04 1.10899E-07
 -1       182-3.96592E-06-6.85150E-04-1.02976E-04
 -1       183 4.99173E-07-8.28086E-04-1.07623E-04
 -1       184 4.82768E-06-6.84789E-04-1.03021E-04
 -1       185 1.62506E-07-6.05428E-04-1.93955E-04
 -1       186 1.64552E-06-4.46370E-04-2.15622E-04
 -1       187 1.28371E-07-4.13435E-04-2.19859E-04
 -1       188-1.42800E-06-4.46271E-04-2.15715E-04
 -1       189 3.00090E-08-1.74179E-04-1.28440E-04
 -1       211-5.84499E-05-8.88966E-04-4.87268E-05
 -1       212 4.93926E-07-7.90710E-04 3.11054E-07
 -1       213 5.92986E-05-8.88396E-04 4.85551E-05
 -1       214 9.63639E-07-6.56166E-04-4.48504E-07
 -1       215 1.21775E-05-3.67452E-04-8.67406E-05
 -1       216-3.57658E-07-3.74461E-04-2.44301E-07
 -1       217-1.21125E-05-3.67741E-04 8.66455E-05
 -1       218-1.57424E-07-1.42372E-04-4.81186E-08
 -1       250 1.82884E-07-8.97236E-04 4.77020E-05
 -1       251 6.72730E-07-5.61769E-04 4.38607E-07
 -1       252 4.35727E-07-7.21558E-04 8.49741E-07
 -1       253-3.26390E-07-5.61534E-04 7.80617E-07
 -1       254 4.76653E-07-8.97053E-04-4.82457E-05
 -1       255 7.87158E-08-6.38967E-04-5.39926E-08
 -1       256 1.01158E-07-3.63215E-04 9.63330E-05
 -1       257-1.23285E-07-4.25207E-04-7.01508E-08
 -1       258 1.90907E-07-3.78082E-04-1.11839E-07
 -1       259 3.06788E-07-4.25158E-04-9.05412E-08
 -1       260 1.59943E-07-3.63345E-04-9.62476E-05
 -1       261 1.10243E-08-1.61883E-04-3.37987E-08
 -3
    1PSTEP                         6           6           1          
  100CL  106 3.00000E-01          81                     1    6           1
 -4  DISP        4    1
 -5  D1          1    2    1    0
 -5  D2          1    2    2    0
 -5  D3          1    2    3    0
 -5  ALL         1    2    0    0    1ALL
 -1         5 0.00000E+00 0.00000E+00 0.00000E+00
 -1         6 0.00000E+00 0.00000E+00 0.00000E+00
 -1         7 0.00000E+00 0.00000E+00 0.00000E+00
 -1         8 0.00000E+00 0.00000E+00 0.00000E+00
 -1        21 0.00000E+00 0.00000E+00 0.00000E+00
 -1        22 0.00000E+00 0.00000E+00 0.00000E+00
 -1        23 0.00000E+00 0.00000E+00 0.00000E+00
 -1        24 0.00000E+00 0.00000E+00 0.00000E+00
 -1        25 0.00000E+00 0.00000E+00 0.00000E+00
 -1        26 0.00000E+00 0.00000E+00 0.00000E+00
 -1        27 0.00000E+00 0.00000E+00 0.00000E+00
 -1        28 0.00000E+00 0.00000E+00 0.00000E+00
 -1        29 0.00000E+00 0.00000E+00 0.00000E+00
 -1        30 0.00000E+00 0.00000E+00 0.00000E+00
 -1        31 0.00000E+00 0.00000E+00 0.00000E+00
 -1        32 0.00000E+00 0.00000E+00 0.00000E+00
 -1        44-5.11451E-05 5.39591E-04-7.86420E-05
 -1        45-1.16007E-05 4.19381E-04-1.26570E-04
 -1        46 1.42062E-05 3.08309E-04-1.45220E-04
 -1        47-1.81383E-05 1.24702E-04-9.56169E-05