
 displacements (vx,vy,vz) for set NALL and time  0.5000000E-01

         5  0.000000E+00  0.000000E+00  0.000000E+00
         6  0.000000E+00  0.000000E+00  0.000000E+00
         7  0.000000E+00  0.000000E+00  0.000000E+00
         8  0.000000E+00  0.000000E+00  0.000000E+00
        21  0.000000E+00  0.000000E+00  0.000000E+00
        22  0.000000E+00  0.000000E+00  0.000000E+00
        23  0.000000E+00  0.000000E+00  0.000000E+00
        24  0.000000E+00  0.000000E+00  0.000000E+00
        25  0.000000E+00  0.000000E+00  0.000000E+00
        26  0.000000E+00  0.000000E+00  0.000000E+00
        27  0.000000E+00  0.000000E+00  0.000000E+00
        28  0.000000E+00  0.000000E+00  0.000000E+00
        29  0.000000E+00  0.000000E+00  0.000000E+00
        30  0.000000E+00  0.000000E+00  0.000000E+00
        31  0.000000E+00  0.000000E+00  0.000000E+00
        32  0.000000E+00  0.000000E+00  0.000000E+00
        44  5.966706E-05 -1.996083E-03  2.771554E-04
        45  7.945985E-06 -1.520398E-03  4.881420E-04
        46 -3.663463E-05 -1.106716E-03  5.130074E-04
        47  6.470164E-05 -4.611321E-04  3.449226E-04
        48 -6.470245E-05 -4.611324E-04  3.449245E-04
        49  3.663905E-05 -1.106710E-03  5.130090E-04
        50 -7.950940E-06 -1.520402E-03  4.881270E-04
        51 -5.963476E-05 -1.996049E-03  2.771006E-04
        74 -5.145404E-05 -2.027469E-03 -2.807458E-04
        75 -2.371003E-06 -1.532036E-03 -4.902833E-04
        76  3.217898E-05 -1.104139E-03 -5.143461E-04
        77 -6.788318E-05 -4.550229E-04 -3.457363E-04
        89  5.142181E-05 -2.027435E-03 -2.806910E-04
        90  2.376067E-06 -1.532040E-03 -4.902683E-04
        91 -3.218329E-05 -1.104134E-03 -5.143477E-04
        92  6.788405E-05 -4.550233E-04 -3.457382E-04
        98  0.000000E+00  0.000000E+00  0.000000E+00
        99  0.000000E+00  0.000000E+00  0.000000E+00
       100  0.000000E+00  0.000000E+00  0.000000E+00
       101  0.000000E+00  0.000000E+00  0.000000E+00
       102  0.000000E+00  0.000000E+00  0.000000E+00
       124 -6.115410E-06 -1.809164E-03  2.631142E-04
       125  3.983358E-09 -2.011238E-03  2.790494E-04
       126  6.132797E-06 -1.809184E-03  2.631332E-04
       127 -8.931420E-10 -1.534693E-03  4.551716E-04
       128  1.548969E-05 -1.153807E-03  5.503860E-04
       129 -4.274408E-10 -1.098823E-03  5.629038E-04
       130 -1.548777E-05 -1.153809E-03  5.503878E-04
       131  4.931229E-11 -4.600923E-04  3.295160E-04
       153 -1.013865E-04 -2.406569E-03  1.267951E-04
       154 -2.914373E-06 -2.146476E-03 -9.290829E-07
       155  1.015432E-04 -2.416896E-03 -1.311009E-04
       156 -1.989316E-06 -1.588821E-03 -2.830440E-06
       157  1.473377E-05 -1.007810E-03  2.162458E-04
       158  3.056292E-06 -1.084578E-03 -3.956561E-07
       159 -1.147536E-05 -1.008559E-03 -2.166209E-04
       160  1.310304E-06 -3.910741E-04  7.687736E-07
       182 -6.705157E-06 -1.796358E-03 -2.647043E-04
       183 -3.977693E-09 -2.037731E-03 -2.805993E-04
       184  6.687767E-06 -1.796339E-03 -2.646853E-04
       185  9.509312E-10 -1.549159E-03 -4.553063E-04
       186  1.459343E-05 -1.168041E-03 -5.542689E-04
       187  4.821437E-10 -1.110283E-03 -5.675412E-04
       188 -1.459524E-05 -1.168039E-03 -5.542670E-04
       189 -2.429065E-11 -4.620136E-04 -3.312558E-04
       211 -1.015615E-04 -2.416878E-03 -1.310823E-04
       212  2.914410E-06 -2.146468E-03 -9.290874E-07
       213  1.014049E-04 -2.406550E-03  1.267764E-04
       214  1.989368E-06 -1.588822E-03 -2.830437E-06
       215  1.147389E-05 -1.008556E-03 -2.166191E-04
       216 -3.056242E-06 -1.084579E-03 -3.956664E-07
       217 -1.473220E-05 -1.007807E-03  2.162439E-04
       218 -1.310274E-06 -3.910735E-04  7.687522E-07
       250  3.938128E-09 -2.032872E-03  1.104753E-04
       251 -4.162854E-07 -1.524792E-03  3.352946E-06
       252  3.322695E-11 -1.541500E-03  1.231510E-06
       253  4.163200E-07 -1.524800E-03  3.352951E-06
       254 -3.877560E-09 -2.048986E-03 -1.231995E-04
       255  1.960291E-11 -1.694607E-03 -1.114572E-06
       256 -7.492081E-10 -9.479555E-04  2.520588E-04
       257 -1.548076E-06 -1.091998E-03 -1.289337E-06
       258  3.592813E-11 -9.359722E-04 -1.118026E-06
       259  1.548142E-06 -1.091997E-03 -1.289332E-06
       260  8.059996E-10 -9.524563E-04 -2.523075E-04
       261  1.249858E-11 -4.352974E-04  8.277406E-08

 forces (fx,fy,fz) for set NALL and time  0.5000000E-01

         5  8.377264E-01 -1.313545E+00 -9.273137E-01
         6 -8.377539E-01 -1.313517E+00 -9.273874E-01
         7  8.918497E-01 -1.156265E+00  9.253536E-01
         8 -8.918230E-01 -1.156293E+00  9.252805E-01
        21  5.244908E-01  3.180518E+00 -1.108625E+01
        22  2.296334E-05 -5.344569E-01 -2.069463E+00
        23 -5.244757E-01  3.180606E+00 -1.108621E+01
        24 -2.181880E+00  7.404791E+00 -5.536175E+00
        25  4.491370E-02 -3.483976E+00 -8.639271E-03
        26  2.118256E+00  7.362733E+00  5.576788E+00
        27  5.133746E-01  2.973642E+00  1.104377E+01
        28 -2.350867E-05 -3.135190E-01  2.070277E+00
        29 -5.133881E-01  2.973554E+00  1.104381E+01
        30 -2.118173E+00  7.362743E+00  5.576838E+00
        31 -4.491425E-02 -3.483927E+00 -8.638780E-03
        32  2.181796E+00  7.404801E+00 -5.536224E+00
        44  1.414112E-01  2.267642E+01  1.084822E+00
        45  6.558794E-08 -6.080789E-01  1.525463E-01
        46  1.010877E-07  1.541502E+00 -4.634046E-01
        47 -2.187861E-07 -1.167018E+00  5.403004E-01
        48 -2.087644E-07 -1.167017E+00  5.403007E-01
        49  7.526047E-08  1.541501E+00 -4.634050E-01
        50  9.668046E-08 -6.080789E-01  1.525469E-01
        51 -1.412620E-01  2.267656E+01  1.084570E+00
        74 -3.878918E-01  2.181260E+01 -1.013009E+00
        75 -2.518586E-08 -6.080792E-01 -1.525466E-01
        76 -2.021750E-07  1.541502E+00  4.634047E-01
        77  2.341991E-07 -1.167018E+00 -5.403002E-01
        89  3.877458E-01  2.181275E+01 -1.012756E+00
        90 -3.544914E-08 -6.080791E-01 -1.525469E-01
        91 -1.927859E-07  1.541501E+00  4.634053E-01
        92  2.155727E-07 -1.167017E+00 -5.403011E-01
        98  3.565469E-05  1.345689E+01 -1.003943E+01
        99  3.307133E-02 -2.555827E+00 -6.040851E-03
       100 -6.665745E-07 -8.117480E+00 -1.918799E-02
       101 -3.306997E-02 -2.555896E+00 -6.040941E-03
       102 -3.641642E-05  1.358867E+01  1.009884E+01
       124 -2.711918E+00  1.251541E+01 -8.061613E-01
       125  6.197665E-05  3.934394E+01  2.160666E+00
       126  2.711861E+00  1.251526E+01 -8.061323E-01
       127  1.679129E-07 -1.216158E+00  3.050932E-01
       128 -3.203978E-07 -2.615813E+00  9.358504E-01
       129  1.744269E-07  3.083003E+00 -9.268096E-01
       130 -3.443333E-07 -2.615814E+00  9.358498E-01
       131 -4.266702E-07 -2.334035E+00  1.080601E+00
       153 -1.870779E+00 -6.540223E+01 -1.693183E+00
       154 -1.931651E-01  4.518208E+01  6.775527E-02
       155  2.345979E+00 -6.516105E+01  1.445853E+00
       156  2.731758E-08 -1.216158E+00 -3.845124E-07
       157 -2.292457E-07 -2.615815E+00  7.018873E-01
       158 -9.610823E-08  3.083004E+00  1.046856E-07
       159  5.188123E-07 -2.615815E+00 -7.018872E-01
       160  7.139236E-09 -2.334036E+00  2.055886E-07
       182 -2.768432E+00  1.401730E+01  8.573635E-01
       183 -5.910885E-05  3.804256E+01 -1.913674E+00
       184  2.768479E+00  1.401745E+01  8.573929E-01
       185 -5.034989E-08 -1.742474E+00 -3.050934E-01
       186  6.470274E-07 -3.142130E+00 -9.358497E-01
       187 -3.973651E-07  2.556688E+00  9.268100E-01
       188  6.335309E-07 -3.142129E+00 -9.358509E-01
       189  4.493143E-07 -2.860351E+00 -1.080601E+00
       211 -2.346120E+00 -6.516110E+01  1.445881E+00
       212  1.931677E-01  4.518219E+01  6.775497E-02
       213  1.870922E+00 -6.540227E+01 -1.693211E+00
       214  7.985311E-08 -1.216158E+00 -6.673257E-08
       215  5.153620E-07 -2.615813E+00 -7.018884E-01
       216 -1.222360E-07  3.083003E+00  3.445258E-07
       217 -1.946344E-07 -2.615813E+00  7.018878E-01
       218  1.165095E-08 -2.334034E+00 -4.153997E-07
       250  1.365313E-05 -1.100171E+02 -3.739380E+00
       251 -7.199591E-02  4.158578E+01  3.862276E-01
       252  3.045841E-06  9.411533E+01  3.037607E-01
       253  7.198855E-02  4.158576E+01  3.862276E-01
       254 -1.111288E-05 -1.106198E+02  2.525275E+00
       255  1.214640E-07 -2.432316E+00 -4.836406E-07
       256 -4.183404E-07 -5.231628E+00  1.403775E+00
       257  3.270394E-07 -5.231627E+00 -6.007029E-07
       258 -2.228761E-07  6.166007E+00  4.531370E-07
       259  2.916310E-07 -5.231629E+00 -6.342850E-08
       260  1.042557E-06 -5.231628E+00 -1.403776E+00
       261  1.907259E-08 -4.668070E+00 -2.132094E-07

 displacements (vx,vy,vz) for set NALL and time  0.1000000E+00

         5  0.000000E+00  0.000000E+00  0.000000E+00
         6  0.000000E+00  0.000000E+00  0.000000E+00
         7  0.000000E+00  0.000000E+00  0.000000E+00
         8  0.000000E+00  0.000000E+00  0.000000E+00
        21  0.000000E+00  0.000000E+00  0.000000E+00
        22  0.000000E+00  0.000000E+00  0.000000E+00
        23  0.000000E+00  0.000000E+00  0.000000E+00
        24  0.000000E+00  0.000000E+00  0.000000E+00
        25  0.000000E+00  0.000000E+00  0.000000E+00
        26  0.000000E+00  0.000000E+00  0.000000E+00
        27  0.000000E+00  0.000000E+00  0.000000E+00
        28  0.000000E+00  0.000000E+00  0.000000E+00
        29  0.000000E+00  0.000000E+00  0.000000E+00
        30  0.000000E+00  0.000000E+00  0.000000E+00
        31  0.000000E+00  0.000000E+00  0.000000E+00
        32  0.000000E+00  0.000000E+00  0.000000E+00
        44 -1.482650E-04  1.639553E-03 -2.394470E-04
        45 -2.752795E-05  1.225510E-03 -4.190860E-04
        46  3.133342E-05  9.400707E-04 -4.438421E-04
        47 -4.695018E-05  3.799882E-04 -2.840341E-04
        48  4.694625E-05  3.799837E-04 -2.840214E-04
        49 -3.129883E-05  9.401041E-04 -4.438314E-04
        50  2.749675E-05  1.225478E-03 -4.191945E-04
        51  1.485039E-04  1.639789E-03 -2.398396E-04
        74  1.407690E-04  1.664472E-03  2.377224E-04
        75  2.161030E-05  1.236950E-03  4.183135E-04
        76 -2.784960E-05  9.335159E-04  4.437130E-04
        77  4.883768E-05  3.760321E-04  2.842546E-04
        89 -1.410080E-04  1.664707E-03  2.381150E-04
        90 -2.157919E-05  1.236918E-03  4.184220E-04
        91  2.781492E-05  9.335492E-04  4.437023E-04
        92 -4.883379E-05  3.760277E-04  2.842420E-04
        98  0.000000E+00  0.000000E+00  0.000000E+00
        99  0.000000E+00  0.000000E+00  0.000000E+00
       100  0.000000E+00  0.000000E+00  0.000000E+00
       101  0.000000E+00  0.000000E+00  0.000000E+00
       102  0.000000E+00  0.000000E+00  0.000000E+00
       124  7.478356E-05  1.509096E-03 -2.337067E-04
       125  3.320432E-08  1.681118E-03 -2.258253E-04
       126 -7.465041E-05  1.508961E-03 -2.335691E-04
       127 -4.833609E-09  1.286886E-03 -3.778608E-04
       128 -1.847850E-05  9.607577E-04 -4.640499E-04
       129 -1.302887E-09  8.980548E-04 -4.724728E-04
       130  1.849546E-05  9.607459E-04 -4.640367E-04
       131  1.242178E-09  3.772882E-04 -2.772066E-04
       153  8.188120E-05  1.991908E-03 -1.130279E-04
       154  4.296587E-06  1.705940E-03  1.121286E-07
       155 -8.212576E-05  1.998466E-03  1.138628E-04
       156  3.054444E-06  1.326088E-03  1.237144E-06
       157 -2.163430E-05  8.236976E-04 -1.882209E-04
       158 -2.236486E-06  8.739526E-04  1.558545E-07
       159  2.126184E-05  8.219868E-04  1.876622E-04
       160 -8.311734E-07  3.248599E-04 -8.781843E-08
       182  7.599892E-05  1.494729E-03  2.310849E-04
       183 -3.320893E-08  1.698004E-03  2.235390E-04
       184 -7.613205E-05  1.494864E-03  2.312225E-04
       185  4.788915E-09  1.295179E-03  3.759611E-04
       186 -1.800917E-05  9.640272E-04  4.654760E-04
       187  1.256381E-09  8.938575E-04  4.739816E-04
       188  1.799211E-05  9.640390E-04  4.654892E-04
       189 -1.262655E-09  3.752708E-04  2.775549E-04
       211  8.198925E-05  1.998597E-03  1.140013E-04
       212 -4.296613E-06  1.706006E-03  1.121229E-07
       213 -8.174477E-05  1.992039E-03 -1.131664E-04
       214 -3.054483E-06  1.326077E-03  1.237139E-06
       215 -2.127426E-05  8.220029E-04  1.876753E-04
       216  2.236444E-06  8.739495E-04  1.558622E-07
       217  2.164663E-05  8.237137E-04 -1.882339E-04
       218  8.311488E-07  3.248618E-04 -8.780127E-08
       250  3.036652E-08  1.750277E-03 -8.683107E-05
       251 -6.944783E-07  1.238899E-03 -1.987260E-06
       252 -2.020188E-11  1.373650E-03 -1.760834E-07
       253  6.944597E-07  1.238839E-03 -1.987258E-06
       254 -3.041245E-08  1.759487E-03  9.270534E-05
       255 -1.499658E-11  1.412293E-03  1.187626E-07
       256 -4.622869E-09  7.781615E-04 -2.113253E-04
       257  7.524052E-07  9.022186E-04  3.687392E-07
       258 -2.896884E-11  7.769231E-04  1.991611E-07
       259 -7.524595E-07  9.022281E-04  3.687347E-07
       260  4.576799E-09  7.757734E-04  2.106701E-04
       261 -1.084546E-11  3.487731E-04  3.296036E-07

 forces (fx,fy,fz) for set NALL and time  0.1000000E+00

         5 -6.593021E-01  1.254944E+00  6.864924E-01
         6  6.591204E-01  1.255125E+00  6.859854E-01
         7 -6.898985E-01  1.126296E+00 -6.815447E-01
         8  6.900810E-01  1.126115E+00 -6.820522E-01
        21 -8.654595E-01 -2.442061E+00  9.204768E+00
        22  1.683352E-04  8.136094E-01  1.489214E+00
        23  8.655421E-01 -2.441469E+00  9.205093E+00
        24  1.576188E+00 -6.982815E+00  4.664748E+00
        25 -3.225666E-02  3.756203E+00  1.367113E-02
        26 -1.504175E+00 -6.911776E+00 -4.708435E+00
        27 -8.877404E-01 -2.262366E+00 -9.177859E+00
        28 -1.677953E-04  6.379396E-01 -1.477850E+00
        29  8.876564E-01 -2.262959E+00 -9.177533E+00
        30  1.504776E+00 -6.911687E+00 -4.708120E+00
        31  3.225715E-02  3.756533E+00  1.367072E-02
        32 -1.576787E+00 -6.982725E+00  4.664432E+00
        44  1.962970E-01 -2.080607E+01 -3.994183E-01
        45 -5.622157E-08  5.208709E-01 -1.306688E-01
        46 -8.659689E-08 -1.320427E+00  3.969451E-01
        47  1.874638E-07  9.996495E-01 -4.628129E-01
        48  1.787692E-07  9.996484E-01 -4.628131E-01
        49 -6.446019E-08 -1.320426E+00  3.969455E-01
        50 -8.277501E-08  5.208708E-01 -1.306693E-01
        51 -1.952701E-01 -2.080504E+01 -4.011414E-01
        74 -1.153410E-02 -1.991900E+01  3.577507E-01
        75  2.161626E-08  5.208711E-01  1.306690E-01
        76  1.731843E-07 -1.320427E+00 -3.969452E-01
        77 -2.006663E-07  9.996495E-01  4.628127E-01
        89  1.050424E-02 -1.991797E+01  3.594739E-01
        90  3.032271E-08  5.208710E-01  1.306693E-01
        91  1.651331E-07 -1.320426E+00 -3.969457E-01
        92 -1.846011E-07  9.996485E-01  4.628135E-01
        98  2.250602E-04 -1.187728E+01  8.443676E+00
        99 -3.930311E-03  2.832044E+00  8.666695E-03
       100  5.393245E-07  6.643714E+00  3.721707E-02
       101  3.929136E-03  2.831592E+00  8.666733E-03
       102 -2.244058E-04 -1.187855E+01 -8.529791E+00
       124  5.329454E+00 -1.144893E+01 -3.383825E-01
       125  4.157729E-04 -3.484421E+01 -7.034544E-01
       126 -5.329766E+00 -1.144997E+01 -3.380600E-01
       127 -1.438315E-07  1.041742E+00 -2.613381E-01
       128  2.744357E-07  2.240665E+00 -8.016348E-01
       129 -1.494114E-07 -2.640852E+00  7.938906E-01
       130  2.949625E-07  2.240666E+00 -8.016343E-01
       131  3.654790E-07  1.999298E+00 -9.256260E-01
       153  2.683291E+00  6.014454E+01  7.536856E-01
       154  1.719153E-01 -4.308339E+01 -3.626769E-02
       155 -3.163227E+00  5.964916E+01 -6.161283E-01
       156 -2.339966E-08  1.041742E+00  3.293622E-07
       157  1.963817E-07  2.240666E+00 -6.012256E-01
       158  8.232317E-08 -2.640853E+00 -8.966839E-08
       159 -4.444159E-07  2.240666E+00  6.012256E-01
       160 -6.113357E-09  1.999299E+00 -1.761036E-07
       182  5.524502E+00 -1.275600E+01  2.835741E-01
       183 -4.185536E-04 -3.345866E+01  5.747888E-01
       184 -5.524180E+00 -1.275497E+01  2.838966E-01
       185  4.312894E-08  1.069443E+00  2.613382E-01
       186 -5.542432E-07  2.268367E+00  8.016342E-01
       187  3.403767E-07 -2.613152E+00 -7.938909E-01
       188 -5.426630E-07  2.268366E+00  8.016352E-01
       189 -3.848756E-07  2.026999E+00  9.256261E-01
       211  3.162176E+00  5.964884E+01 -6.157884E-01
       212 -1.719175E-01 -4.308255E+01 -3.626768E-02
       213 -2.682242E+00  6.014422E+01  7.533460E-01
       214 -6.840111E-08  1.041742E+00  5.715695E-08
       215 -4.414417E-07  2.240665E+00  6.012267E-01
       216  1.047071E-07 -2.640852E+00 -2.951117E-07
       217  1.667074E-07  2.240665E+00 -6.012261E-01
       218 -9.982023E-09  1.999297E+00  3.558253E-07
       250  1.339715E-04  9.832710E+01  3.502995E+00
       251 -1.578585E-02 -3.795568E+01 -2.097889E-01
       252 -2.568001E-06 -8.012373E+01 -1.256180E-01
       253  1.579241E-02 -3.795596E+01 -2.097887E-01
       254 -1.362377E-04  9.817720E+01 -2.822525E+00
       255 -1.040441E-07  2.083484E+00  4.142683E-07
       256  3.583439E-07  4.481331E+00 -1.202452E+00
       257 -2.801407E-07  4.481330E+00  5.145479E-07
       258  1.909121E-07 -5.281705E+00 -3.881422E-07
       259 -2.498027E-07  4.481332E+00  5.432707E-08
       260 -8.930379E-07  4.481331E+00  1.202452E+00
       261 -1.633727E-08  3.998596E+00  1.826322E-07

 displacements (vx,vy,vz) for set NALL and time  0.1500000E+00

         5  0.000000E+00  0.000000E+00  0.000000E+00
         6  0.000000E+00  0.000000E+00  0.000000E+00
         7  0.000000E+00  0.000000E+00  0.000000E+00
         8  0.000000E+00  0.000000E+00  0.000000E+00
        21  0.000000E+00  0.000000E+00  0.000000E+00
        22  0.000000E+00  0.000000E+00  0.000000E+00
        23  0.000000E+00  0.000000E+00  0.000000E+00
        24  0.000000E+00  0.000000E+00  0.000000E+00
        25  0.000000E+00  0.000000E+00  0.000000E+00
        26  0.000000E+00  0.000000E+00  0.000000E+00
        27  0.000000E+00  0.000000E+00  0.000000E+00
        28  0.000000E+00  0.000000E+00  0.000000E+00
        29  0.000000E+00  0.000000E+00  0.000000E+00
        30  0.000000E+00  0.000000E+00  0.000000E+00
        31  0.000000E+00  0.000000E+00  0.000000E+00
        32  0.000000E+00  0.000000E+00  0.000000E+00
        44  9.153124E-05 -1.309207E-03  1.935461E-04
        45  1.769721E-05 -9.773859E-04  3.321778E-04
        46 -2.499995E-05 -7.389635E-04  3.466160E-04
        47  3.911375E-05 -3.004935E-04  2.247818E-04
        48 -3.918579E-05 -3.005654E-04  2.250016E-04
        49  2.558654E-05 -7.383749E-04  3.468017E-04
        50 -1.824256E-05 -9.779331E-04  3.303107E-04
        51 -8.744598E-05 -1.305111E-03  1.867831E-04
        74 -8.755985E-05 -1.328270E-03 -1.932449E-04
        75 -1.309689E-05 -9.855993E-04 -3.314535E-04
        76  2.227813E-05 -7.339765E-04 -3.460434E-04
        77 -4.043073E-05 -2.975552E-04 -2.247439E-04
        89  8.347464E-05 -1.324174E-03 -1.864818E-04
        90  1.364234E-05 -9.861465E-04 -3.295863E-04
        91 -2.286464E-05 -7.333878E-04 -3.462291E-04
        92  4.050281E-05 -2.976271E-04 -2.249637E-04
        98  0.000000E+00  0.000000E+00  0.000000E+00
        99  0.000000E+00  0.000000E+00  0.000000E+00
       100  0.000000E+00  0.000000E+00  0.000000E+00
       101  0.000000E+00  0.000000E+00  0.000000E+00
       102  0.000000E+00  0.000000E+00  0.000000E+00
       124 -3.922650E-05 -1.192866E-03  1.818927E-04
       125  5.618684E-07 -1.324102E-03  1.876770E-04
       126  4.149472E-05 -1.195204E-03  1.842680E-04
       127 -8.956626E-08 -1.017917E-03  3.021369E-04
       128  1.362945E-05 -7.579155E-04  3.663358E-04
       129 -2.502999E-08 -7.110671E-04  3.730280E-04
       130 -1.334440E-05 -7.581251E-04  3.665614E-04
       131  1.916551E-08 -2.996057E-04  2.192549E-04
       153 -6.645535E-05 -1.579333E-03  8.818868E-05
       154 -3.333516E-06 -1.368195E-03  1.149562E-07
       155  6.582270E-05 -1.584356E-03 -8.875076E-05
       156 -2.176236E-06 -1.049012E-03 -6.543492E-07
       157  1.440858E-05 -6.539631E-04  1.477005E-04
       158  1.601231E-06 -6.948954E-04  7.414780E-08
       159 -1.435651E-05 -6.526064E-04 -1.469540E-04
       160  6.250608E-07 -2.565209E-04  1.478792E-07
       182 -4.328277E-05 -1.185641E-03 -1.830418E-04
       183 -5.618506E-07 -1.338120E-03 -1.869465E-04
       184  4.101457E-05 -1.183303E-03 -1.806664E-04
       185  8.961361E-08 -1.023419E-03 -3.002798E-04
       186  1.291584E-05 -7.603920E-04 -3.673085E-04
       187  2.506861E-08 -7.076374E-04 -3.738312E-04
       188 -1.320080E-05 -7.601825E-04 -3.670829E-04
       189 -1.914799E-08 -2.978559E-04 -2.192855E-04
       211 -6.815396E-05 -1.582083E-03 -8.638065E-05
       212  3.333577E-06 -1.367072E-03  1.149294E-07
       213  6.878671E-05 -1.577060E-03  8.581854E-05
       214  2.176274E-06 -1.049187E-03 -6.543537E-07
       215  1.414778E-05 -6.523214E-04 -1.467273E-04
       216 -1.601189E-06 -6.949477E-04  7.413798E-08
       217 -1.419977E-05 -6.536781E-04  1.474737E-04
       218 -6.250406E-07 -2.564821E-04  1.478623E-07
       250  5.189424E-07 -1.372097E-03  7.819591E-05
       251  5.675441E-07 -9.913075E-04  2.265814E-06
       252  2.632623E-11 -1.073762E-03  1.176219E-06
       253 -5.675015E-07 -9.923440E-04  2.265822E-06
       254 -5.188915E-07 -1.379562E-03 -8.167538E-05
       255  1.789318E-11 -1.113082E-03  2.738211E-07
       256 -8.082435E-08 -6.175869E-04  1.663735E-04
       257 -5.167467E-07 -7.142138E-04 -1.280367E-07
       258  2.510380E-11 -6.164806E-04  4.792178E-08
       259  5.167967E-07 -7.140512E-04 -1.280298E-07
       260  8.086484E-08 -6.156748E-04 -1.656155E-04
       261  8.830816E-12 -2.777832E-04 -1.494725E-07

 forces (fx,fy,fz) for set NALL and time  0.1500000E+00

         5  5.490286E-01 -9.128980E-01 -5.783069E-01
         6 -5.521837E-01 -9.097380E-01 -5.870815E-01
         7  5.739910E-01 -8.151276E-01  5.872808E-01
         8 -5.708364E-01 -8.182875E-01  5.785064E-01
        21  5.492131E-01  1.945287E+00 -7.256587E+00
        22  2.870055E-03 -5.397467E-01 -1.226852E+00
        23 -5.477197E-01  1.955601E+00 -7.251072E+00
        24 -1.287095E+00  5.254497E+00 -3.673106E+00
        25  2.316891E-02 -2.725630E+00 -6.067037E-03
        26  1.233322E+00  5.201985E+00  3.697504E+00
        27  5.662579E-01  1.822535E+00  7.222289E+00
        28 -2.870488E-03 -4.100374E-01  1.225347E+00
        29 -5.677501E-01  1.812221E+00  7.227803E+00
        30 -1.223034E+00  5.203466E+00  3.703056E+00
        31 -2.316939E-02 -2.719857E+00 -6.066747E-03
        32  1.276806E+00  5.255978E+00 -3.678657E+00
        44 -2.045491E-02  1.582265E+01  5.076263E-01
        45  4.478581E-08 -4.142604E-01  1.039238E-01
        46  6.888742E-08  1.050165E+00 -3.156995E-01
        47 -1.491995E-07 -7.950439E-01  3.680856E-01
        48 -1.420740E-07 -7.950431E-01  3.680858E-01
        49  5.125168E-08  1.050165E+00 -3.156998E-01
        50  6.576131E-08 -4.142604E-01  1.039243E-01
        51  3.820726E-02  1.584042E+01  4.777786E-01
        74 -1.239738E-01  1.515282E+01 -4.869119E-01
        75 -1.726763E-08 -4.142606E-01 -1.039240E-01
        76 -1.377488E-07  1.050165E+00  3.156995E-01
        77  1.597000E-07 -7.950439E-01 -3.680854E-01
        89  1.062235E-01  1.517059E+01 -4.570640E-01
        90 -2.404061E-08 -4.142605E-01 -1.039242E-01
        91 -1.313227E-07  1.050165E+00  3.157000E-01
        92  1.467119E-07 -7.950431E-01 -3.680860E-01
        98  3.926493E-03  9.115058E+00 -6.675865E+00
        99  5.244102E-04 -2.036449E+00 -1.405330E-02
       100 -4.515477E-07 -5.071017E+00 -1.967822E-02
       101 -5.234585E-04 -2.044322E+00 -1.405331E-02
       102 -3.926979E-03  9.115864E+00  6.729547E+00
       124 -3.365396E+00  8.805002E+00 -1.304924E-01
       125  7.243055E-03  2.695984E+01  9.868865E-01
       126  3.359821E+00  8.786991E+00 -1.249701E-01
       127  1.143925E-07 -8.285208E-01  2.078481E-01
       128 -2.182401E-07 -1.782052E+00  6.375584E-01
       129  1.188303E-07  2.100330E+00 -6.313992E-01
       130 -2.346152E-07 -1.782052E+00  6.375579E-01
       131 -2.906738E-07 -1.590087E+00  7.361714E-01
       153 -1.914481E+00 -4.585353E+01 -8.073785E-01
       154 -1.241084E-01  3.250784E+01  1.438501E-02
       155  2.260839E+00 -4.547380E+01  7.135454E-01
       156  1.861123E-08 -8.285210E-01 -2.619416E-07
       157 -1.562136E-07 -1.782052E+00  4.781684E-01
       158 -6.547162E-08  2.100331E+00  7.130995E-08
       159  3.534751E-07 -1.782053E+00 -4.781683E-01
       160  4.858898E-09 -1.590088E+00  1.400585E-07
       182 -3.511213E+00  9.758168E+00  1.618135E-01
       183 -7.241037E-03  2.590554E+01 -9.198840E-01
       184  3.516781E+00  9.776179E+00  1.673361E-01
       185 -3.430142E-08 -8.299791E-01 -2.078482E-01
       186  4.408236E-07 -1.783510E+00 -6.375579E-01
       187 -2.707094E-07  2.098872E+00  6.313995E-01
       188  4.315708E-07 -1.783510E+00 -6.375587E-01
       189  3.061003E-07 -1.591545E+00 -7.361715E-01
       211 -2.278786E+00 -4.547938E+01  7.189475E-01
       212  1.241104E-01  3.252228E+01  1.438486E-02
       213  1.932430E+00 -4.585912E+01 -8.127812E-01
       214  5.440002E-08 -8.285209E-01 -4.545058E-08
       215  3.510675E-07 -1.782052E+00 -4.781692E-01
       216 -8.327780E-08  2.100329E+00  2.347037E-07
       217 -1.325593E-07 -1.782051E+00  4.781688E-01
       218  7.942125E-09 -1.590086E+00 -2.829966E-07
       250  2.262680E-03 -7.570472E+01 -2.352367E+00
       251  1.610947E-02  2.898610E+01  1.904842E-01
       252  2.043909E-06  6.235675E+01  9.483032E-02
       253 -1.611462E-02  2.898163E+01  1.904842E-01
       254 -2.260930E-03 -7.557528E+01  1.869461E+00
       255  8.274866E-08 -1.657042E+00 -3.294610E-07
       256 -2.849990E-07 -3.564104E+00  9.563371E-01
       257  2.228077E-07 -3.564103E+00 -4.092247E-07
       258 -1.518367E-07  4.200660E+00  3.086866E-07
       259  1.986683E-07 -3.564105E+00 -4.320055E-08
       260  7.102533E-07 -3.564104E+00 -9.563375E-01
       261  1.299341E-08 -3.180174E+00 -1.452521E-07

 displacements (vx,vy,vz) for set NALL and time  0.2000000E+00

         5  0.000000E+00  0.000000E+00  0.000000E+00
         6  0.000000E+00  0.000000E+00  0.000000E+00
         7  0.000000E+00  0.000000E+00  0.000000E+00
         8  0.000000E+00  0.000000E+00  0.000000E+00
        21  0.000000E+00  0.000000E+00  0.000000E+00
        22  0.000000E+00  0.000000E+00  0.000000E+00
        23  0.000000E+00  0.000000E+00  0.000000E+00
        24  0.000000E+00  0.000000E+00  0.000000E+00
        25  0.000000E+00  0.000000E+00  0.000000E+00
        26  0.000000E+00  0.000000E+00  0.000000E+00
        27  0.000000E+00  0.000000E+00  0.000000E+00
        28  0.000000E+00  0.000000E+00  0.000000E+00
        29  0.000000E+00  0.000000E+00  0.000000E+00
        30  0.000000E+00  0.000000E+00  0.000000E+00
        31  0.000000E+00  0.000000E+00  0.000000E+00
        32  0.000000E+00  0.000000E+00  0.000000E+00
        44 -5.200435E-05  9.836538E-04 -1.351920E-04
        45 -9.524637E-06  7.478260E-04 -2.441021E-04
        46  1.965840E-05  5.578603E-04 -2.589919E-04
        47 -3.078061E-05  2.305822E-04 -1.714919E-04
        48  3.070935E-05  2.305137E-04 -1.712783E-04
        49 -1.908174E-05  5.584233E-04 -2.588116E-04
        50  8.979035E-06  7.473112E-04 -2.459083E-04
        51  5.601509E-05  9.875639E-04 -1.417382E-04
        74  4.947718E-05  9.980358E-04  1.351961E-04
        75  6.001200E-06  7.539484E-04  2.433857E-04
        76 -1.752487E-05  5.540351E-04  2.584152E-04
        77  3.173710E-05  2.283238E-04  1.713771E-04
        89 -5.348765E-05  1.001946E-03  1.417422E-04
        90 -5.455543E-06  7.534335E-04  2.451918E-04
        91  1.694823E-05  5.545982E-04  2.582348E-04
        92 -3.166585E-05  2.282553E-04  1.711634E-04
        98  0.000000E+00  0.000000E+00  0.000000E+00
        99  0.000000E+00  0.000000E+00  0.000000E+00
       100  0.000000E+00  0.000000E+00  0.000000E+00
       101  0.000000E+00  0.000000E+00  0.000000E+00
       102  0.000000E+00  0.000000E+00  0.000000E+00
       124  2.205068E-05  9.030552E-04 -1.352490E-04
       125  5.353127E-07  1.001921E-03 -1.419536E-04
       126 -1.983807E-05  9.008285E-04 -1.329837E-04
       127 -7.816663E-08  7.674670E-04 -2.261835E-04
       128 -9.488496E-06  5.761550E-04 -2.750479E-04
       129 -3.336146E-08  5.445981E-04 -2.798205E-04
       130  9.760070E-06  5.759539E-04 -2.748224E-04
       131  1.880640E-08  2.300580E-04 -1.656277E-04
       153  5.095643E-05  1.187067E-03 -6.341400E-05
       154  2.183203E-06  1.042310E-03 -2.558161E-07
       155 -5.026892E-05  1.191061E-03  6.376888E-05
       156  1.488881E-06  7.931956E-04  2.952567E-07
       157 -8.839893E-06  5.006981E-04 -1.095641E-04
       158 -1.167598E-06  5.343998E-04 -2.024183E-07
       159  8.792788E-06  4.995747E-04  1.087881E-04
       160 -4.419362E-07  1.966500E-04 -1.533951E-07
       182  2.115179E-05  8.939058E-04  1.320041E-04
       183 -5.352127E-07  1.013085E-03  1.411327E-04
       184 -2.336414E-05  8.961325E-04  1.342694E-04
       185  7.821745E-08  7.715036E-04  2.246796E-04
       186 -9.331254E-06  5.776933E-04  2.752838E-04
       187  3.334197E-08  5.420886E-04  2.803808E-04
       188  9.059655E-06  5.778943E-04  2.755092E-04
       189 -1.881509E-08  2.286615E-04  1.655426E-04
       211  4.797666E-05  1.193239E-03  6.609027E-05
       212 -2.183000E-06  1.043402E-03 -2.559496E-07
       213 -4.866383E-05  1.189245E-03 -6.573559E-05
       214 -1.488858E-06  7.930123E-04  2.951948E-07
       215 -8.998045E-06  4.998545E-04  1.090010E-04
       216  1.167618E-06  5.343645E-04 -2.024395E-07
       217  9.045177E-06  5.009779E-04 -1.097770E-04
       218  4.419262E-07  1.966874E-04 -1.533939E-07
       250  4.950294E-07  1.025939E-03 -5.527828E-05
       251 -2.483080E-07  7.546403E-04 -2.094284E-06