    1C
    1UUSER                                                              
    1UDATE              12.july.2018                                    
    1UTIME              13:02:34                                        
    1UHOST                                                              
    1UPGM               CalculiX                                        
    1UVERSION           Version 2.13                             
    1UCOMPILETIME       jue jun 14 00:40:39 CEST 2018                    
    1UDIR                                                               
    1UDBN                                                               
    1UMAT    1EL                                                        
    2C                            81                                     1
 -1         5 0.00000E+00 0.00000E+00 8.00000E+00
 -1         6 1.00000E+00 0.00000E+00 8.00000E+00
 -1         7 1.00000E+00 1.00000E+00 8.00000E+00
 -1         8 0.00000E+00 1.00000E+00 8.00000E+00
 -1        21 2.50000E-01 0.00000E+00 8.00000E+00
 -1        22 5.00000E-01 0.00000E+00 8.00000E+00
 -1        23 7.50000E-01 0.00000E+00 8.00000E+00
 -1        24 1.00000E+00 2.50000E-01 8.00000E+00
 -1        25 1.00000E+00 5.00000E-01 8.00000E+00
 -1        26 1.00000E+00 7.50000E-01 8.00000E+00
 -1        27 7.50000E-01 1.00000E+00 8.00000E+00
 -1        28 5.00000E-01 1.00000E+00 8.00000E+00
 -1        29 2.50000E-01 1.00000E+00 8.00000E+00
 -1        30 0.00000E+00 7.50000E-01 8.00000E+00
 -1        31 0.00000E+00 5.00000E-01 8.00000E+00
 -1        32 0.00000E+00 2.50000E-01 8.00000E+00
 -1        44 1.00000E+00 0.00000E+00 6.00000E+00
 -1        45 1.00000E+00 0.00000E+00 6.50000E+00
 -1        46 1.00000E+00 0.00000E+00 7.00000E+00
 -1        47 1.00000E+00 0.00000E+00 7.50000E+00
 -1        48 0.00000E+00 0.00000E+00 7.50000E+00
 -1        49 0.00000E+00 0.00000E+00 7.00000E+00
 -1        50 0.00000E+00 0.00000E+00 6.50000E+00
 -1        51 0.00000E+00 0.00000E+00 6.00000E+00
 -1        74 1.00000E+00 1.00000E+00 6.00000E+00
 -1        75 1.00000E+00 1.00000E+00 6.50000E+00
 -1        76 1.00000E+00 1.00000E+00 7.00000E+00
 -1        77 1.00000E+00 1.00000E+00 7.50000E+00
 -1        89 0.00000E+00 1.00000E+00 6.00000E+00
 -1        90 0.00000E+00 1.00000E+00 6.50000E+00
 -1        91 0.00000E+00 1.00000E+00 7.00000E+00
 -1        92 0.00000E+00 1.00000E+00 7.50000E+00
 -1        98 5.00000E-01 2.50000E-01 8.00000E+00
 -1        99 2.50000E-01 5.00000E-01 8.00000E+00
 -1       100 5.00000E-01 5.00000E-01 8.00000E+00
 -1       101 7.50000E-01 5.00000E-01 8.00000E+00
 -1       102 5.00000E-01 7.50000E-01 8.00000E+00
 -1       124 2.50000E-01 0.00000E+00 6.00000E+00
 -1       125 5.00000E-01 0.00000E+00 6.00000E+00
 -1       126 7.50000E-01 0.00000E+00 6.00000E+00
 -1       127 5.00000E-01 0.00000E+00 6.50000E+00
 -1       128 2.50000E-01 0.00000E+00 7.00000E+00
 -1       129 5.00000E-01 0.00000E+00 7.00000E+00
 -1       130 7.50000E-01 0.00000E+00 7.00000E+00
 -1       131 5.00000E-01 0.00000E+00 7.50000E+00
 -1       153 1.00000E+00 2.50000E-01 6.00000E+00
 -1       154 1.00000E+00 5.00000E-01 6.00000E+00
 -1       155 1.00000E+00 7.50000E-01 6.00000E+00
 -1       156 1.00000E+00 5.00000E-01 6.50000E+00
 -1       157 1.00000E+00 2.50000E-01 7.00000E+00
 -1       158 1.00000E+00 5.00000E-01 7.00000E+00
 -1       159 1.00000E+00 7.50000E-01 7.00000E+00
 -1       160 1.00000E+00 5.00000E-01 7.50000E+00
 -1       182 7.50000E-01 1.00000E+00 6.00000E+00
 -1       183 5.00000E-01 1.00000E+00 6.00000E+00
 -1       184 2.50000E-01 1.00000E+00 6.00000E+00
 -1       185 5.00000E-01 1.00000E+00 6.50000E+00
 -1       186 7.50000E-01 1.00000E+00 7.00000E+00
 -1       187 5.00000E-01 1.00000E+00 7.00000E+00
 -1       188 2.50000E-01 1.00000E+00 7.00000E+00
 -1       189 5.00000E-01 1.00000E+00 7.50000E+00
 -1       211 0.00000E+00 7.50000E-01 6.00000E+00
 -1       212 0.00000E+00 5.00000E-01 6.00000E+00
 -1       213 0.00000E+00 2.50000E-01 6.00000E+00
 -1       214 0.00000E+00 5.00000E-01 6.50000E+00
 -1       215 0.00000E+00 7.50000E-01 7.00000E+00
 -1       216 0.00000E+00 5.00000E-01 7.00000E+00
 -1       217 0.00000E+00 2.50000E-01 7.00000E+00
 -1       218 0.00000E+00 5.00000E-01 7.50000E+00
 -1       250 5.00000E-01 2.50000E-01 6.00000E+00
 -1       251 2.50000E-01 5.00000E-01 6.00000E+00
 -1       252 5.00000E-01 5.00000E-01 6.00000E+00
 -1       253 7.50000E-01 5.00000E-01 6.00000E+00
 -1       254 5.00000E-01 7.50000E-01 6.00000E+00
 -1       255 5.00000E-01 5.00000E-01 6.50000E+00
 -1       256 5.00000E-01 2.50000E-01 7.00000E+00
 -1       257 2.50000E-01 5.00000E-01 7.00000E+00
 -1       258 5.00000E-01 5.00000E-01 7.00000E+00
 -1       259 7.50000E-01 5.00000E-01 7.00000E+00
 -1       260 5.00000E-01 7.50000E-01 7.00000E+00
 -1       261 5.00000E-01 5.00000E-01 7.50000E+00
 -3
    3C                             8                                     1
 -1        25    4    0    1
 -2        51       125       252       212        49       129       258       216       124       250
 -2       251       213        50       127       255       214       128       256       257       217
 -1        26    4    0    1
 -2       125        44       154       252       129        46       158       258       126       153
 -2       253       250       127        45       156       255       130       157       259       256
 -1        27    4    0    1
 -2       212       252       183        89       216       258       187        91       251       254
 -2       184       211       214       255       185        90       257       260       188       215
 -1        28    4    0    1
 -2       252       154        74       183       258       158        76       187       253       155
 -2       182       254       255       156        75       185       259       159       186       260
 -1        29    4    0    1
 -2        49       129       258       216         5        22       100        31       128       256
 -2       257       217        48       131       261       218        21        98        99        32
 -1        30    4    0    1
 -2       129        46       158       258        22         6        25       100       130       157
 -2       259       256       131        47       160       261        23        24       101        98
 -1        31    4    0    1
 -2       216       258       187        91        31       100        28         8       257       260
 -2       188       215       218       261       189        92        99       102        29        30
 -1        32    4    0    1
 -2       258       158        76       187       100        25         7        28       259       159
 -2       186       260       261       160        77       189       101        26        27       102
 -3
    1PSTEP                         1           1           1          
  100CL  101 5.00000E-02          81                     1    1           1
 -4  DISP        4    1
 -5  D1          1    2    1    0
 -5  D2          1    2    2    0
 -5  D3          1    2    3    0
 -5  ALL         1    2    0    0    1ALL
 -1         5 0.00000E+00 0.00000E+00 0.00000E+00
 -1         6 0.00000E+00 0.00000E+00 0.00000E+00
 -1         7 0.00000E+00 0.00000E+00 0.00000E+00
 -1         8 0.00000E+00 0.00000E+00 0.00000E+00
 -1        21 0.00000E+00 0.00000E+00 0.00000E+00
 -1        22 0.00000E+00 0.00000E+00 0.00000E+00
 -1        23 0.00000E+00 0.00000E+00 0.00000E+00
 -1        24 0.00000E+00 0.00000E+00 0.00000E+00
 -1        25 0.00000E+00 0.00000E+00 0.00000E+00
 -1        26 0.00000E+00 0.00000E+00 0.00000E+00
 -1        27 0.00000E+00 0.00000E+00 0.00000E+00
 -1        28 0.00000E+00 0.00000E+00 0.00000E+00
 -1        29 0.00000E+00 0.00000E+00 0.00000E+00
 -1        30 0.00000E+00 0.00000E+00 0.00000E+00
 -1        31 0.00000E+00 0.00000E+00 0.00000E+00
 -1        32 0.00000E+00 0.00000E+00 0.00000E+00
 -1        44 5.96671E-05-1.99608E-03 2.77155E-04
 -1        45 7.94599E-06-1.52040E-03 4.88142E-04
 -1        46-3.66346E-05-1.10672E-03 5.13007E-04
 -1        47 6.47016E-05-4.61132E-04 3.44923E-04
 -1        48-6.47024E-05-4.61132E-04 3.44925E-04
 -1        49 3.66391E-05-1.10671E-03 5.13009E-04
 -1        50-7.95094E-06-1.52040E-03 4.88127E-04
 -1        51-5.96348E-05-1.99605E-03 2.77101E-04
 -1        74-5.14540E-05-2.02747E-03-2.80746E-04
 -1        75-2.37100E-06-1.53204E-03-4.90283E-04
 -1        76 3.21790E-05-1.10414E-03-5.14346E-04
 -1        77-6.78832E-05-4.55023E-04-3.45736E-04
 -1        89 5.14218E-05-2.02743E-03-2.80691E-04
 -1        90 2.37607E-06-1.53204E-03-4.90268E-04
 -1        91-3.21833E-05-1.10413E-03-5.14348E-04
 -1        92 6.78841E-05-4.55023E-04-3.45738E-04
 -1        98 0.00000E+00 0.00000E+00 0.00000E+00
 -1        99 0.00000E+00 0.00000E+00 0.00000E+00
 -1       100 0.00000E+00 0.00000E+00 0.00000E+00
 -1       101 0.00000E+00 0.00000E+00 0.00000E+00
 -1       102 0.00000E+00 0.00000E+00 0.00000E+00
 -1       124-6.11541E-06-1.80916E-03 2.63114E-04
 -1       125 3.98336E-09-2.01124E-03 2.79049E-04
 -1       126 6.13280E-06-1.80918E-03 2.63133E-04
 -1       127-8.93142E-10-1.53469E-03 4.55172E-04
 -1       128 1.54897E-05-1.15381E-03 5.50386E-04
 -1       129-4.27441E-10-1.09882E-03 5.62904E-04
 -1       130-1.54878E-05-1.15381E-03 5.50388E-04
 -1       131 4.93123E-11-4.60092E-04 3.29516E-04
 -1       153-1.01386E-04-2.40657E-03 1.26795E-04
 -1       154-2.91437E-06-2.14648E-03-9.29083E-07
 -1       155 1.01543E-04-2.41690E-03-1.31101E-04
 -1       156-1.98932E-06-1.58882E-03-2.83044E-06
 -1       157 1.47338E-05-1.00781E-03 2.16246E-04
 -1       158 3.05629E-06-1.08458E-03-3.95656E-07
 -1       159-1.14754E-05-1.00856E-03-2.16621E-04
 -1       160 1.31030E-06-3.91074E-04 7.68774E-07
 -1       182-6.70516E-06-1.79636E-03-2.64704E-04
 -1       183-3.97769E-09-2.03773E-03-2.80599E-04
 -1       184 6.68777E-06-1.79634E-03-2.64685E-04
 -1       185 9.50931E-10-1.54916E-03-4.55306E-04
 -1       186 1.45934E-05-1.16804E-03-5.54269E-04
 -1       187 4.82144E-10-1.11028E-03-5.67541E-04
 -1       188-1.45952E-05-1.16804E-03-5.54267E-04
 -1       189-2.42907E-11-4.62014E-04-3.31256E-04
 -1       211-1.01561E-04-2.41688E-03-1.31082E-04
 -1       212 2.91441E-06-2.14647E-03-9.29087E-07
 -1       213 1.01405E-04-2.40655E-03 1.26776E-04
 -1       214 1.98937E-06-1.58882E-03-2.83044E-06
 -1       215 1.14739E-05-1.00856E-03-2.16619E-04
 -1       216-3.05624E-06-1.08458E-03-3.95666E-07
 -1       217-1.47322E-05-1.00781E-03 2.16244E-04
 -1       218-1.31027E-06-3.91074E-04 7.68752E-07
 -1       250 3.93813E-09-2.03287E-03 1.10475E-04
 -1       251-4.16285E-07-1.52479E-03 3.35295E-06
 -1       252 3.32269E-11-1.54150E-03 1.23151E-06
 -1       253 4.16320E-07-1.52480E-03 3.35295E-06
 -1       254-3.87756E-09-2.04899E-03-1.23199E-04
 -1       255 1.96029E-11-1.69461E-03-1.11457E-06
 -1       256-7.49208E-10-9.47956E-04 2.52059E-04
 -1       257-1.54808E-06-1.09200E-03-1.28934E-06
 -1       258 3.59281E-11-9.35972E-04-1.11803E-06
 -1       259 1.54814E-06-1.09200E-03-1.28933E-06
 -1       260 8.06000E-10-9.52456E-04-2.52307E-04
 -1       261 1.24986E-11-4.35297E-04 8.27741E-08
 -3
    1PSTEP                         2           2           1          
  100CL  102 1.00000E-01          81                     1    2           1
 -4  DISP        4    1
 -5  D1          1    2    1    0
 -5  D2          1    2    2    0
 -5  D3          1    2    3    0
 -5  ALL         1    2    0    0    1ALL
 -1         5 0.00000E+00 0.00000E+00 0.00000E+00
 -1         6 0.00000E+00 0.00000E+00 0.00000E+00
 -1         7 0.00000E+00 0.00000E+00 0.00000E+00
 -1         8 0.00000E+00 0.00000E+00 0.00000E+00
 -1        21 0.00000E+00 0.00000E+00 0.00000E+00
 -1        22 0.00000E+00 0.00000E+00 0.00000E+00
 -1        23 0.00000E+00 0.00000E+00 0.00000E+00
 -1        24 0.00000E+00 0.00000E+00 0.00000E+00
 -1        25 0.00000E+00 0.00000E+00 0.00000E+00
 -1        26 0.00000E+00 0.00000E+00 0.00000E+00
 -1        27 0.00000E+00 0.00000E+00 0.00000E+00
 -1        28 0.00000E+00 0.00000E+00 0.00000E+00
 -1        29 0.00000E+00 0.00000E+00 0.00000E+00
 -1        30 0.00000E+00 0.00000E+00 0.00000E+00
 -1        31 0.00000E+00 0.00000E+00 0.00000E+00
 -1        32 0.00000E+00 0.00000E+00 0.00000E+00
 -1        44-1.48265E-04 1.63955E-03-2.39447E-04
 -1        45-2.75280E-05 1.22551E-03-4.19086E-04
 -1        46 3.13334E-05 9.40071E-04-4.43842E-04
 -1        47-4.69502E-05 3.79988E-04-2.84034E-04
 -1        48 4.69463E-05 3.79984E-04-2.84021E-04
 -1        49-3.12988E-05 9.40104E-04-4.43831E-04
 -1        50 2.74968E-05 1.22548E-03-4.19195E-04
 -1        51 1.48504E-04 1.63979E-03-2.39840E-04
 -1        74 1.40769E-04 1.66447E-03 2.37722E-04
 -1        75 2.16103E-05 1.23695E-03 4.18314E-04
 -1        76-2.78496E-05 9.33516E-04 4.43713E-04
 -1        77 4.88377E-05 3.76032E-04 2.84255E-04
 -1        89-1.41008E-04 1.66471E-03 2.38115E-04
 -1        90-2.15792E-05 1.23692E-03 4.18422E-04
 -1        91 2.78149E-05 9.33549E-04 4.43702E-04
 -1        92-4.88338E-05 3.76028E-04 2.84242E-04
 -1        98 0.00000E+00 0.00000E+00 0.00000E+00
 -1        99 0.00000E+00 0.00000E+00 0.00000E+00
 -1       100 0.00000E+00 0.00000E+00 0.00000E+00
 -1       101 0.00000E+00 0.00000E+00 0.00000E+00
 -1       102 0.00000E+00 0.00000E+00 0.00000E+00
 -1       124 7.47836E-05 1.50910E-03-2.33707E-04
 -1       125 3.32043E-08 1.68112E-03-2.25825E-04
 -1       126-7.46504E-05 1.50896E-03-2.33569E-04
 -1       127-4.83361E-09 1.28689E-03-3.77861E-04
 -1       128-1.84785E-05 9.60758E-04-4.64050E-04
 -1       129-1.30289E-09 8.98055E-04-4.72473E-04
 -1       130 1.84955E-05 9.60746E-04-4.64037E-04
 -1       131 1.24218E-09 3.77288E-04-2.77207E-04
 -1       153 8.18812E-05 1.99191E-03-1.13028E-04
 -1       154 4.29659E-06 1.70594E-03 1.12129E-07
 -1       155-8.21258E-05 1.99847E-03 1.13863E-04
 -1       156 3.05444E-06 1.32609E-03 1.23714E-06
 -1       157-2.16343E-05 8.23698E-04-1.88221E-04
 -1       158-2.23649E-06 8.73953E-04 1.55855E-07
 -1       159 2.12618E-05 8.21987E-04 1.87662E-04
 -1       160-8.31173E-07 3.24860E-04-8.78184E-08
 -1       182 7.59989E-05 1.49473E-03 2.31085E-04
 -1       183-3.32089E-08 1.69800E-03 2.23539E-04
 -1       184-7.61320E-05 1.49486E-03 2.31223E-04
 -1       185 4.78891E-09 1.29518E-03 3.75961E-04
 -1       186-1.80092E-05 9.64027E-04 4.65476E-04
 -1       187 1.25638E-09 8.93857E-04 4.73982E-04
 -1       188 1.79921E-05 9.64039E-04 4.65489E-04
 -1       189-1.26266E-09 3.75271E-04 2.77555E-04
 -1       211 8.19893E-05 1.99860E-03 1.14001E-04
 -1       212-4.29661E-06 1.70601E-03 1.12123E-07
 -1       213-8.17448E-05 1.99204E-03-1.13166E-04
 -1       214-3.05448E-06 1.32608E-03 1.23714E-06
 -1       215-2.12743E-05 8.22003E-04 1.87675E-04
 -1       216 2.23644E-06 8.73950E-04 1.55862E-07
 -1       217 2.16466E-05 8.23714E-04-1.88234E-04
 -1       218 8.31149E-07 3.24862E-04-8.78013E-08
 -1       250 3.03665E-08 1.75028E-03-8.68311E-05
 -1       251-6.94478E-07 1.23890E-03-1.98726E-06
 -1       252-2.02019E-11 1.37365E-03-1.76083E-07
 -1       253 6.94460E-07 1.23884E-03-1.98726E-06
 -1       254-3.04124E-08 1.75949E-03 9.27053E-05
 -1       255-1.49966E-11 1.41229E-03 1.18763E-07
 -1       256-4.62287E-09 7.78162E-04-2.11325E-04
 -1       257 7.52405E-07 9.02219E-04 3.68739E-07
 -1       258-2.89688E-11 7.76923E-04 1.99161E-07
 -1       259-7.52459E-07 9.02228E-04 3.68735E-07
 -1       260 4.57680E-09 7.75773E-04 2.10670E-04
 -1       261-1.08455E-11 3.48773E-04 3.29604E-07
 -3
    1PSTEP                         3           3           1          
  100CL  103 1.50000E-01          81                     1    3           1
 -4  DISP        4    1
 -5  D1          1    2    1    0
 -5  D2          1    2    2    0
 -5  D3          1    2    3    0
 -5  ALL         1    2    0    0    1ALL
 -1         5 0.00000E+00 0.00000E+00 0.00000E+00
 -1         6 0.00000E+00 0.00000E+00 0.00000E+00
 -1         7 0.00000E+00 0.00000E+00 0.00000E+00
 -1         8 0.00000E+00 0.00000E+00 0.00000E+00
 -1        21 0.00000E+00 0.00000E+00 0.00000E+00
 -1        22 0.00000E+00 0.00000E+00 0.00000E+00
 -1        23 0.00000E+00 0.00000E+00 0.00000E+00
 -1        24 0.00000E+00 0.00000E+00 0.00000E+00
 -1        25 0.00000E+00 0.00000E+00 0.00000E+00
 -1        26 0.00000E+00 0.00000E+00 0.00000E+00
 -1        27 0.00000E+00 0.00000E+00 0.00000E+00
 -1        28 0.00000E+00 0.00000E+00 0.00000E+00
 -1        29 0.00000E+00 0.00000E+00 0.00000E+00
 -1        30 0.00000E+00 0.00000E+00 0.00000E+00
 -1        31 0.00000E+00 0.00000E+00 0.00000E+00
 -1        32 0.00000E+00 0.00000E+00 0.00000E+00
 -1        44 9.15312E-05-1.30921E-03 1.93546E-04
 -1        45 1.76972E-05-9.77386E-04 3.32178E-04
 -1        46-2.50000E-05-7.38964E-04 3.46616E-04
 -1        47 3.91137E-05-3.00494E-04 2.24782E-04
 -1        48-3.91858E-05-3.00565E-04 2.25002E-04
 -1        49 2.55865E-05-7.38375E-04 3.46802E-04
 -1        50-1.82426E-05-9.77933E-04 3.30311E-04
 -1        51-8.74460E-05-1.30511E-03 1.86783E-04
 -1        74-8.75598E-05-1.32827E-03-1.93245E-04
 -1        75-1.30969E-05-9.85599E-04-3.31453E-04
 -1        76 2.22781E-05-7.33976E-04-3.46043E-04
 -1        77-4.04307E-05-2.97555E-04-2.24744E-04
 -1        89 8.34746E-05-1.32417E-03-1.86482E-04
 -1        90 1.36423E-05-9.86147E-04-3.29586E-04
 -1        91-2.28646E-05-7.33388E-04-3.46229E-04
 -1        92 4.05028E-05-2.97627E-04-2.24964E-04
 -1        98 0.00000E+00 0.00000E+00 0.00000E+00
 -1        99 0.00000E+00 0.00000E+00 0.00000E+00
 -1       100 0.00000E+00 0.00000E+00 0.00000E+00
 -1       101 0.00000E+00 0.00000E+00 0.00000E+00
 -1       102 0.00000E+00 0.00000E+00 0.00000E+00
 -1       124-3.92265E-05-1.19287E-03 1.81893E-04
 -1       125 5.61868E-07-1.32410E-03 1.87677E-04
 -1       126 4.14947E-05-1.19520E-03 1.84268E-04
 -1       127-8.95663E-08-1.01792E-03 3.02137E-04
 -1       128 1.36294E-05-7.57916E-04 3.66336E-04
 -1       129-2.50300E-08-7.11067E-04 3.73028E-04
 -1       130-1.33444E-05-7.58125E-04 3.66561E-04
 -1       131 1.91655E-08-2.99606E-04 2.19255E-04
 -1       153-6.64553E-05-1.57933E-03 8.81887E-05
 -1       154-3.33352E-06-1.36819E-03 1.14956E-07
 -1       155 6.58227E-05-1.58436E-03-8.87508E-05
 -1       156-2.17624E-06-1.04901E-03-6.54349E-07
 -1       157 1.44086E-05-6.53963E-04 1.47700E-04
 -1       158 1.60123E-06-6.94895E-04 7.41478E-08
 -1       159-1.43565E-05-6.52606E-04-1.46954E-04
 -1       160 6.25061E-07-2.56521E-04 1.47879E-07
 -1       182-4.32828E-05-1.18564E-03-1.83042E-04
 -1       183-5.61851E-07-1.33812E-03-1.86946E-04
 -1       184 4.10146E-05-1.18330E-03-1.80666E-04
 -1       185 8.96136E-08-1.02342E-03-3.00280E-04
 -1       186 1.29158E-05-7.60392E-04-3.67309E-04
 -1       187 2.50686E-08-7.07637E-04-3.73831E-04
 -1       188-1.32008E-05-7.60182E-04-3.67083E-04
 -1       189-1.91480E-08-2.97856E-04-2.19286E-04
 -1       211-6.81540E-05-1.58208E-03-8.63806E-05
 -1       212 3.33358E-06-1.36707E-03 1.14929E-07
 -1       213 6.87867E-05-1.57706E-03 8.58185E-05
 -1       214 2.17627E-06-1.04919E-03-6.54354E-07
 -1       215 1.41478E-05-6.52321E-04-1.46727E-04
 -1       216-1.60119E-06-6.94948E-04 7.41380E-08
 -1       217-1.41998E-05-6.53678E-04 1.47474E-04
 -1       218-6.25041E-07-2.56482E-04 1.47862E-07
 -1       250 5.18942E-07-1.37210E-03 7.81959E-05
 -1       251 5.67544E-07-9.91307E-04 2.26581E-06
 -1       252 2.63262E-11-1.07376E-03 1.17622E-06
 -1       253-5.67502E-07-9.92344E-04 2.26582E-06
 -1       254-5.18892E-07-1.37956E-03-8.16754E-05
 -1       255 1.78932E-11-1.11308E-03 2.73821E-07
 -1       256-8.08243E-08-6.17587E-04 1.66374E-04
 -1       257-5.16747E-07-7.14214E-04-1.28037E-07
 -1       258 2.51038E-11-6.16481E-04 4.79218E-08
 -1       259 5.16797E-07-7.14051E-04-1.28030E-07
 -1       260 8.08648E-08-6.15675E-04-1.65615E-04
 -1       261 8.83082E-12-2.77783E-04-1.49473E-07
 -3
    1PSTEP                         4           4           1          
  100CL  104 2.00000E-01          81                     1    4           1
 -4  DISP        4    1
 -5  D1          1    2    1    0
 -5  D2          1    2    2    0
 -5  D3          1    2    3    0
 -5  ALL         1    2    0    0    1ALL
 -1         5 0.00000E+00 0.00000E+00 0.00000E+00
 -1         6 0.00000E+00 0.00000E+00 0.00000E+00
 -1         7 0.00000E+00 0.00000E+00 0.00000E+00
 -1         8 0.00000E+00 0.00000E+00 0.00000E+00
 -1        21 0.00000E+00 0.00000E+00 0.00000E+00
 -1        22 0.00000E+00 0.00000E+00 0.00000E+00
 -1        23 0.00000E+00 0.00000E+00 0.00000E+00
 -1        24 0.00000E+00 0.00000E+00 0.00000E+00
 -1        25 0.00000E+00 0.00000E+00 0.00000E+00
 -1        26 0.00000E+00 0.00000E+00 0.00000E+00
 -1        27 0.00000E+00 0.00000E+00 0.00000E+00
 -1        28 0.00000E+00 0.00000E+00 0.00000E+00
 -1        29 0.00000E+00 0.00000E+00 0.00000E+00
 -1        30 0.00000E+00 0.00000E+00 0.00000E+00
 -1        31 0.00000E+00 0.00000E+00 0.00000E+00
 -1        32 0.00000E+00 0.00000E+00 0.00000E+00
 -1        44-5.20044E-05 9.83654E-04-1.35192E-04
 -1        45-9.52464E-06 7.47826E-04-2.44102E-04
 -1        46 1.96584E-05 5.57860E-04-2.58992E-04
 -1        47-3.07806E-05 2.30582E-04-1.71492E-04
 -1        48 3.07094E-05 2.30514E-04-1.71278E-04
 -1        49-1.90817E-05 5.58423E-04-2.58812E-04
 -1        50 8.97903E-06 7.47311E-04-2.45908E-04
 -1        51 5.60151E-05 9.87564E-04-1.41738E-04
 -1        74 4.94772E-05 9.98036E-04 1.35196E-04
 -1        75 6.00120E-06 7.53948E-04 2.43386E-04
 -1        76-1.75249E-05 5.54035E-04 2.58415E-04
 -1        77 3.17371E-05 2.28324E-04 1.71377E-04
 -1        89-5.34877E-05 1.00195E-03 1.41742E-04
 -1        90-5.45554E-06 7.53434E-04 2.45192E-04
 -1        91 1.69482E-05 5.54598E-04 2.58235E-04
 -1        92-3.16659E-05 2.28255E-04 1.71163E-04
 -1        98 0.00000E+00 0.00000E+00 0.00000E+00
 -1        99 0.00000E+00 0.00000E+00 0.00000E+00
 -1       100 0.00000E+00 0.00000E+00 0.00000E+00
 -1       101 0.00000E+00 0.00000E+00 0.00000E+00
 -1       102 0.00000E+00 0.00000E+00 0.00000E+00
 -1       124 2.20507E-05 9.03055E-04-1.35249E-04
 -1       125 5.35313E-07 1.00192E-03-1.41954E-04
 -1       126-1.98381E-05 9.00829E-04-1.32984E-04
 -1       127-7.81666E-08 7.67467E-04-2.26183E-04
 -1       128-9.48850E-06 5.76155E-04-2.75048E-04
 -1       129-3.33615E-08 5.44598E-04-2.79821E-04
 -1       130 9.76007E-06 5.75954E-04-2.74822E-04
 -1       131 1.88064E-08 2.30058E-04-1.65628E-04
 -1       153 5.09564E-05 1.18707E-03-6.34140E-05
 -1       154 2.18320E-06 1.04231E-03-2.55816E-07
 -1       155-5.02689E-05 1.19106E-03 6.37689E-05
 -1       156 1.48888E-06 7.93196E-04 2.95257E-07
 -1       157-8.83989E-06 5.00698E-04-1.09564E-04
 -1       158-1.16760E-06 5.34400E-04-2.02418E-07
 -1       159 8.79279E-06 4.99575E-04 1.08788E-04
 -1       160-4.41936E-07 1.96650E-04-1.53395E-07
 -1       182 2.11518E-05 8.93906E-04 1.32004E-04
 -1       183-5.35213E-07 1.01309E-03 1.41133E-04
 -1       184-2.33641E-05 8.96133E-04 1.34269E-04
 -1       185 7.82175E-08 7.71504E-04 2.24680E-04
 -1       186-9.33125E-06 5.77693E-04 2.75284E-04
 -1       187 3.33420E-08 5.42089E-04 2.80381E-04
 -1       188 9.05965E-06 5.77894E-04 2.75509E-04
 -1       189-1.88151E-08 2.28661E-04 1.65543E-04
 -1       211 4.79767E-05 1.19324E-03 6.60903E-05
 -1       212-2.18300E-06 1.04340E-03-2.55950E-07
 -1       213-4.86638E-05 1.18925E-03-6.57356E-05
 -1       214-1.48886E-06 7.93012E-04 2.95195E-07
 -1       215-8.99804E-06 4.99854E-04 1.09001E-04
 -1       216 1.16762E-06 5.34365E-04-2.02440E-07
 -1       217 9.04518E-06 5.00978E-04-1.09777E-04
 -1       218 4.41926E-07 1.96687E-04-1.53394E-07
 -1       250 4.95029E-07 1.02594E-03-5.52783E-05
 -1       251-2.48308E-07 7.54640E-04-2.09428E-06
 -1       252 3.96496E-11 7.95456E-04-1.30445E-06
 -1       253 2.48450E-07 7.53630E-04-2.09426E-06
 -1       254-4.94956E-07 1.03219E-03 5.74771E-05
 -1       255 3.23815E-11 8.43066E-04-4.23720E-07
 -1       256-8.21289E-08 4.73031E-04-1.25858E-04
 -1       257 3.69644E-07 5.43940E-04 6.12130E-09
 -1       258-1.23110E-11 4.69476E-04-1.40043E-07
 -1       259-3.69648E-07 5.44091E-04 6.14198E-09
 -1       260 8.21120E-08 4.71538E-04 1.25122E-04
 -1       261-3.65356E-12 2.14747E-04 6.96922E-08
 -3
    1PSTEP                         5           5           1          
  100CL  105 2.50000E-01          81                     1    5           1
 -4  DISP        4    1
 -5  D1          1    2    1    0
 -5  D2          1    2    2    0
 -5  D3          1    2    3    0
 -5  ALL         1    2    0    0    1ALL
 -1         5 0.00000E+00 0.00000E+00 0.00000E+00
 -1         6 0.00000E+00 0.00000E+00 0.00000E+00
 -1         7 0.00000E+00 0.00000E+00 0.00000E+00
 -1         8 0.00000E+00 0.00000E+00 0.00000E+00
 -1        21 0.00000E+00 0.00000E+00 0.00000E+00
 -1        22 0.00000E+00 0.00000E+00 0.00000E+00
 -1        23 0.00000E+00 0.00000E+00 0.00000E+00
 -1        24 0.00000E+00 0.00000E+00 0.00000E+00
 -1        25 0.00000E+00 0.00000E+00 0.00000E+00
 -1        26 0.00000E+00 0.00000E+00 0.00000E+00
 -1        27 0.00000E+00 0.00000E+00 0.00000E+00
 -1        28 0.00000E+00 0.00000E+00 0.00000E+00
 -1        29 0.00000E+00 0.00000E+00 0.00000E+00
 -1        30 0.00000E+00 0.00000E+00 0.00000E+00
 -1        31 0.00000E+00 0.00000E+00 0.00000E+00
 -1        32 0.00000E+00 0.00000E+00 0.00000E+00
 -1        44 5.37318E-05-7.64476E-04 1.14576E-04
 -1        45 1.10355E-05-5.70329E-04 1.93836E-04
 -1        46-1.54201E-05-4.32241E-04 2.00622E-04
 -1        47 2.32129E-05-1.75457E-04 1.30563E-04
 -1        48-2.32305E-05-1.75482E-04 1.30629E-04
 -1        49 1.55769E-05-4.32052E-04 2.00678E-04
 -1        50-1.11593E-05-5.70529E-04 1.93301E-04
 -1        51-5.26710E-05-7.63174E-04 1.12628E-04
 -1        74-5.06475E-05-7.71160E-04-1.11720E-04
 -1        75-9.64742E-06-5.73664E-04-1.93036E-04
 -1        76 1.49216E-05-4.30216E-04-2.00200E-04
 -1        77-2.37087E-05-1.74360E-04-1.30493E-04
 -1        89 4.95867E-05-7.69856E-04-1.09771E-04
 -1        90 9.77140E-06-5.73864E-04-1.92502E-04
 -1        91-1.50784E-05-4.30028E-04-2.00255E-04
 -1        92 2.37263E-05-1.74385E-04-1.30559E-04
 -1        98 0.00000E+00 0.00000E+00 0.00000E+00
 -1        99 0.00000E+00 0.00000E+00 0.00000E+00
 -1       100 0.00000E+00 0.00000E+00 0.00000E+00
 -1       101 0.00000E+00 0.00000E+00 0.00000E+00
 -1       102 0.00000E+00 0.00000E+00 0.00000E+00
 -1       124-2.13284E-05-6.95898E-04 1.04346E-04
 -1       125 1.66088E-07-7.73495E-04 1.12694E-04
 -1       126 2.19348E-05-6.96650E-04 1.05087E-04
 -1       127-3.85365E-08-5.97358E-04 1.78025E-04
 -1       128 7.49901E-06-4.42796E-04 2.14294E-04
 -1       129 9.68653E-09-4.13857E-04 2.17651E-04
 -1       130-7.40703E-06-4.42863E-04 2.14344E-04
 -1       131 5.87683E-09-1.75410E-04 1.28400E-04
 -1       153-4.08479E-05-9.18415E-04 4.90388E-05
 -1       154-2.44304E-06-7.94838E-04-3.83498E-08
 -1       155 4.19597E-05-9.18995E-04-4.75979E-05
 -1       156-1.43808E-06-6.17011E-04-6.39807E-07
 -1       157 8.26149E-06-3.81221E-04 8.60974E-05
 -1       158 8.84450E-07-4.02894E-04-7.94675E-08
 -1       159-8.17469E-06-3.80957E-04-8.59151E-05
 -1       160 4.54826E-07-1.49937E-04 1.39680E-07
 -1       182-2.31765E-05-6.91686E-04-1.04086E-04
 -1       183-1.65986E-07-7.77247E-04-1.12655E-04
 -1       184 2.25703E-05-6.90935E-04-1.03344E-04
 -1       185 3.86796E-08-5.99496E-04-1.76214E-04
 -1       186 7.84212E-06-4.43498E-04-2.14143E-04
 -1       187-9.68860E-09-4.12193E-04-2.17436E-04
 -1       188-7.93410E-06-4.43431E-04-2.14092E-04
 -1       189-5.85802E-09-1.74844E-04-1.28555E-04
 -1       211-4.25522E-05-9.18307E-04-4.69926E-05
 -1       212 2.44366E-06-7.94560E-04-3.88566E-08
 -1       213 4.14410E-05-9.17728E-04 4.84331E-05
 -1       214 1.43810E-06-6.17025E-04-6.39915E-07
 -1       215 8.11731E-06-3.80886E-04-8.58339E-05
 -1       216-8.84309E-07-4.02952E-04-7.94923E-08
 -1       217-8.20398E-06-3.81150E-04 8.60161E-05
 -1       218-4.54823E-07-1.49925E-04 1.39644E-07
 -1       250 1.56743E-07-8.07728E-04 5.16840E-05
 -1       251 1.00359E-06-5.79166E-04 6.07366E-07
 -1       252 8.87603E-11-6.38719E-04-8.08931E-08
 -1       253-1.00325E-06-5.79428E-04 6.07465E-07
 -1       254-1.56631E-07-8.08398E-04-5.32708E-05
 -1       255 7.12841E-11-6.47435E-04-1.59679E-07
 -1       256-1.60041E-08-3.61735E-04 9.59821E-05
 -1       257-3.74104E-07-4.18338E-04-2.74710E-08
 -1       258 1.62281E-11-3.63722E-04 1.08097E-07
 -1       259 3.74200E-07-4.18272E-04-2.74212E-08
 -1       260 1.60297E-08-3.61203E-04-9.54756E-05
 -1       261 4.02055E-12-1.62177E-04-2.24547E-08
 -3
    1PSTEP                         6           6           1          
  100CL  106 3.00000E-01          81                     1    6           1
 -4  DISP        4    1
 -5  D1          1    2    1    0
 -5  D2          1    2    2    0
 -5  D3          1    2    3    0
 -5  ALL         1    2    0    0    1ALL
 -1         5 0.00000E+00 0.00000E+00 0.00000E+00
 -1         6 0.00000E+00 0.00000E+00 0.00000E+00
 -1         7 0.00000E+00 0.00000E+00 0.00000E+00
 -1         8 0.00000E+00 0.00000E+00 0.00000E+00
 -1        21 0.00000E+00 0.00000E+00 0.00000E+00
 -1        22 0.00000E+00 0.00000E+00 0.00000E+00
 -1        23 0.00000E+00 0.00000E+00 0.00000E+00
 -1        24 0.00000E+00 0.00000E+00 0.00000E+00
 -1        25 0.00000E+00 0.00000E+00 0.00000E+00
 -1        26 0.00000E+00 0.00000E+00 0.00000E+00
 -1        27 0.00000E+00 0.00000E+00 0.00000E+00
 -1        28 0.00000E+00 0.00000E+00 0.00000E+00
 -1        29 0.00000E+00 0.00000E+00 0.00000E+00
 -1        30 0.00000E+00 0.00000E+00 0.00000E+00
 -1        31 0.00000E+00 0.00000E+00 0.00000E+00
 -1        32 0.00000E+00 0.00000E+00 0.00000E+00
 -1        44-3.50353E-05 5.55642E-04-7.73749E-05
 -1        45-8.65337E-06 4.16133E-04-1.41275E-04
 -1        46 1.14878E-05 3.14536E-04-1.47978E-04
 -1        47-1.67388E-05 1.27983E-04-9.57350E-05