    1C
    1UUSER                                                              
    1UDATE              18.july.2018                                    
    1UTIME              00:39:14                                        
    1UHOST                                                              
    1UPGM               CalculiX                                        
    1UVERSION           Version 2.13                             
    1UCOMPILETIME       jue jun 14 00:40:39 CEST 2018                    
    1UDIR                                                               
    1UDBN                                                               
    1UMAT    1EL                                                        
    2C                           261                                     1
 -1         1 0.00000E+00 0.00000E+00 0.00000E+00
 -1         2 1.00000E+00 0.00000E+00 0.00000E+00
 -1         3 1.00000E+00 1.00000E+00 0.00000E+00
 -1         4 0.00000E+00 1.00000E+00 0.00000E+00
 -1         5 0.00000E+00 0.00000E+00 8.00000E+00
 -1         6 1.00000E+00 0.00000E+00 8.00000E+00
 -1         7 1.00000E+00 1.00000E+00 8.00000E+00
 -1         8 0.00000E+00 1.00000E+00 8.00000E+00
 -1         9 2.50000E-01 0.00000E+00 0.00000E+00
 -1        10 5.00000E-01 0.00000E+00 0.00000E+00
 -1        11 7.50000E-01 0.00000E+00 0.00000E+00
 -1        12 1.00000E+00 2.50000E-01 0.00000E+00
 -1        13 1.00000E+00 5.00000E-01 0.00000E+00
 -1        14 1.00000E+00 7.50000E-01 0.00000E+00
 -1        15 7.50000E-01 1.00000E+00 0.00000E+00
 -1        16 5.00000E-01 1.00000E+00 0.00000E+00
 -1        17 2.50000E-01 1.00000E+00 0.00000E+00
 -1        18 0.00000E+00 7.50000E-01 0.00000E+00
 -1        19 0.00000E+00 5.00000E-01 0.00000E+00
 -1        20 0.00000E+00 2.50000E-01 0.00000E+00
 -1        21 2.50000E-01 0.00000E+00 8.00000E+00
 -1        22 5.00000E-01 0.00000E+00 8.00000E+00
 -1        23 7.50000E-01 0.00000E+00 8.00000E+00
 -1        24 1.00000E+00 2.50000E-01 8.00000E+00
 -1        25 1.00000E+00 5.00000E-01 8.00000E+00
 -1        26 1.00000E+00 7.50000E-01 8.00000E+00
 -1        27 7.50000E-01 1.00000E+00 8.00000E+00
 -1        28 5.00000E-01 1.00000E+00 8.00000E+00
 -1        29 2.50000E-01 1.00000E+00 8.00000E+00
 -1        30 0.00000E+00 7.50000E-01 8.00000E+00
 -1        31 0.00000E+00 5.00000E-01 8.00000E+00
 -1        32 0.00000E+00 2.50000E-01 8.00000E+00
 -1        33 1.00000E+00 0.00000E+00 5.00000E-01
 -1        34 1.00000E+00 0.00000E+00 1.00000E+00
 -1        35 1.00000E+00 0.00000E+00 1.50000E+00
 -1        36 1.00000E+00 0.00000E+00 2.00000E+00
 -1        37 1.00000E+00 0.00000E+00 2.50000E+00
 -1        38 1.00000E+00 0.00000E+00 3.00000E+00
 -1        39 1.00000E+00 0.00000E+00 3.50000E+00
 -1        40 1.00000E+00 0.00000E+00 4.00000E+00
 -1        41 1.00000E+00 0.00000E+00 4.50000E+00
 -1        42 1.00000E+00 0.00000E+00 5.00000E+00
 -1        43 1.00000E+00 0.00000E+00 5.50000E+00
 -1        44 1.00000E+00 0.00000E+00 6.00000E+00
 -1        45 1.00000E+00 0.00000E+00 6.50000E+00
 -1        46 1.00000E+00 0.00000E+00 7.00000E+00
 -1        47 1.00000E+00 0.00000E+00 7.50000E+00
 -1        48 0.00000E+00 0.00000E+00 7.50000E+00
 -1        49 0.00000E+00 0.00000E+00 7.00000E+00
 -1        50 0.00000E+00 0.00000E+00 6.50000E+00
 -1        51 0.00000E+00 0.00000E+00 6.00000E+00
 -1        52 0.00000E+00 0.00000E+00 5.50000E+00
 -1        53 0.00000E+00 0.00000E+00 5.00000E+00
 -1        54 0.00000E+00 0.00000E+00 4.50000E+00
 -1        55 0.00000E+00 0.00000E+00 4.00000E+00
 -1        56 0.00000E+00 0.00000E+00 3.50000E+00
 -1        57 0.00000E+00 0.00000E+00 3.00000E+00
 -1        58 0.00000E+00 0.00000E+00 2.50000E+00
 -1        59 0.00000E+00 0.00000E+00 2.00000E+00
 -1        60 0.00000E+00 0.00000E+00 1.50000E+00
 -1        61 0.00000E+00 0.00000E+00 1.00000E+00
 -1        62 0.00000E+00 0.00000E+00 5.00000E-01
 -1        63 1.00000E+00 1.00000E+00 5.00000E-01
 -1        64 1.00000E+00 1.00000E+00 1.00000E+00
 -1        65 1.00000E+00 1.00000E+00 1.50000E+00
 -1        66 1.00000E+00 1.00000E+00 2.00000E+00
 -1        67 1.00000E+00 1.00000E+00 2.50000E+00
 -1        68 1.00000E+00 1.00000E+00 3.00000E+00
 -1        69 1.00000E+00 1.00000E+00 3.50000E+00
 -1        70 1.00000E+00 1.00000E+00 4.00000E+00
 -1        71 1.00000E+00 1.00000E+00 4.50000E+00
 -1        72 1.00000E+00 1.00000E+00 5.00000E+00
 -1        73 1.00000E+00 1.00000E+00 5.50000E+00
 -1        74 1.00000E+00 1.00000E+00 6.00000E+00
 -1        75 1.00000E+00 1.00000E+00 6.50000E+00
 -1        76 1.00000E+00 1.00000E+00 7.00000E+00
 -1        77 1.00000E+00 1.00000E+00 7.50000E+00
 -1        78 0.00000E+00 1.00000E+00 5.00000E-01
 -1        79 0.00000E+00 1.00000E+00 1.00000E+00
 -1        80 0.00000E+00 1.00000E+00 1.50000E+00
 -1        81 0.00000E+00 1.00000E+00 2.00000E+00
 -1        82 0.00000E+00 1.00000E+00 2.50000E+00
 -1        83 0.00000E+00 1.00000E+00 3.00000E+00
 -1        84 0.00000E+00 1.00000E+00 3.50000E+00
 -1        85 0.00000E+00 1.00000E+00 4.00000E+00
 -1        86 0.00000E+00 1.00000E+00 4.50000E+00
 -1        87 0.00000E+00 1.00000E+00 5.00000E+00
 -1        88 0.00000E+00 1.00000E+00 5.50000E+00
 -1        89 0.00000E+00 1.00000E+00 6.00000E+00
 -1        90 0.00000E+00 1.00000E+00 6.50000E+00
 -1        91 0.00000E+00 1.00000E+00 7.00000E+00
 -1        92 0.00000E+00 1.00000E+00 7.50000E+00
 -1        93 5.00000E-01 2.50000E-01 0.00000E+00
 -1        94 2.50000E-01 5.00000E-01 0.00000E+00
 -1        95 5.00000E-01 5.00000E-01 0.00000E+00
 -1        96 7.50000E-01 5.00000E-01 0.00000E+00
 -1        97 5.00000E-01 7.50000E-01 0.00000E+00
 -1        98 5.00000E-01 2.50000E-01 8.00000E+00
 -1        99 2.50000E-01 5.00000E-01 8.00000E+00
 -1       100 5.00000E-01 5.00000E-01 8.00000E+00
 -1       101 7.50000E-01 5.00000E-01 8.00000E+00
 -1       102 5.00000E-01 7.50000E-01 8.00000E+00
 -1       103 5.00000E-01 0.00000E+00 5.00000E-01
 -1       104 2.50000E-01 0.00000E+00 1.00000E+00
 -1       105 5.00000E-01 0.00000E+00 1.00000E+00
 -1       106 7.50000E-01 0.00000E+00 1.00000E+00
 -1       107 5.00000E-01 0.00000E+00 1.50000E+00
 -1       108 2.50000E-01 0.00000E+00 2.00000E+00
 -1       109 5.00000E-01 0.00000E+00 2.00000E+00
 -1       110 7.50000E-01 0.00000E+00 2.00000E+00
 -1       111 5.00000E-01 0.00000E+00 2.50000E+00
 -1       112 2.50000E-01 0.00000E+00 3.00000E+00
 -1       113 5.00000E-01 0.00000E+00 3.00000E+00
 -1       114 7.50000E-01 0.00000E+00 3.00000E+00
 -1       115 5.00000E-01 0.00000E+00 3.50000E+00
 -1       116 2.50000E-01 0.00000E+00 4.00000E+00
 -1       117 5.00000E-01 0.00000E+00 4.00000E+00
 -1       118 7.50000E-01 0.00000E+00 4.00000E+00
 -1       119 5.00000E-01 0.00000E+00 4.50000E+00
 -1       120 2.50000E-01 0.00000E+00 5.00000E+00
 -1       121 5.00000E-01 0.00000E+00 5.00000E+00
 -1       122 7.50000E-01 0.00000E+00 5.00000E+00
 -1       123 5.00000E-01 0.00000E+00 5.50000E+00
 -1       124 2.50000E-01 0.00000E+00 6.00000E+00
 -1       125 5.00000E-01 0.00000E+00 6.00000E+00
 -1       126 7.50000E-01 0.00000E+00 6.00000E+00
 -1       127 5.00000E-01 0.00000E+00 6.50000E+00
 -1       128 2.50000E-01 0.00000E+00 7.00000E+00
 -1       129 5.00000E-01 0.00000E+00 7.00000E+00
 -1       130 7.50000E-01 0.00000E+00 7.00000E+00
 -1       131 5.00000E-01 0.00000E+00 7.50000E+00
 -1       132 1.00000E+00 5.00000E-01 5.00000E-01
 -1       133 1.00000E+00 2.50000E-01 1.00000E+00
 -1       134 1.00000E+00 5.00000E-01 1.00000E+00
 -1       135 1.00000E+00 7.50000E-01 1.00000E+00
 -1       136 1.00000E+00 5.00000E-01 1.50000E+00
 -1       137 1.00000E+00 2.50000E-01 2.00000E+00
 -1       138 1.00000E+00 5.00000E-01 2.00000E+00
 -1       139 1.00000E+00 7.50000E-01 2.00000E+00
 -1       140 1.00000E+00 5.00000E-01 2.50000E+00
 -1       141 1.00000E+00 2.50000E-01 3.00000E+00
 -1       142 1.00000E+00 5.00000E-01 3.00000E+00
 -1       143 1.00000E+00 7.50000E-01 3.00000E+00
 -1       144 1.00000E+00 5.00000E-01 3.50000E+00
 -1       145 1.00000E+00 2.50000E-01 4.00000E+00
 -1       146 1.00000E+00 5.00000E-01 4.00000E+00
 -1       147 1.00000E+00 7.50000E-01 4.00000E+00
 -1       148 1.00000E+00 5.00000E-01 4.50000E+00
 -1       149 1.00000E+00 2.50000E-01 5.00000E+00
 -1       150 1.00000E+00 5.00000E-01 5.00000E+00
 -1       151 1.00000E+00 7.50000E-01 5.00000E+00
 -1       152 1.00000E+00 5.00000E-01 5.50000E+00
 -1       153 1.00000E+00 2.50000E-01 6.00000E+00
 -1       154 1.00000E+00 5.00000E-01 6.00000E+00
 -1       155 1.00000E+00 7.50000E-01 6.00000E+00
 -1       156 1.00000E+00 5.00000E-01 6.50000E+00
 -1       157 1.00000E+00 2.50000E-01 7.00000E+00
 -1       158 1.00000E+00 5.00000E-01 7.00000E+00
 -1       159 1.00000E+00 7.50000E-01 7.00000E+00
 -1       160 1.00000E+00 5.00000E-01 7.50000E+00
 -1       161 5.00000E-01 1.00000E+00 5.00000E-01
 -1       162 7.50000E-01 1.00000E+00 1.00000E+00
 -1       163 5.00000E-01 1.00000E+00 1.00000E+00
 -1       164 2.50000E-01 1.00000E+00 1.00000E+00
 -1       165 5.00000E-01 1.00000E+00 1.50000E+00
 -1       166 7.50000E-01 1.00000E+00 2.00000E+00
 -1       167 5.00000E-01 1.00000E+00 2.00000E+00
 -1       168 2.50000E-01 1.00000E+00 2.00000E+00
 -1       169 5.00000E-01 1.00000E+00 2.50000E+00
 -1       170 7.50000E-01 1.00000E+00 3.00000E+00
 -1       171 5.00000E-01 1.00000E+00 3.00000E+00
 -1       172 2.50000E-01 1.00000E+00 3.00000E+00
 -1       173 5.00000E-01 1.00000E+00 3.50000E+00
 -1       174 7.50000E-01 1.00000E+00 4.00000E+00
 -1       175 5.00000E-01 1.00000E+00 4.00000E+00
 -1       176 2.50000E-01 1.00000E+00 4.00000E+00
 -1       177 5.00000E-01 1.00000E+00 4.50000E+00
 -1       178 7.50000E-01 1.00000E+00 5.00000E+00
 -1       179 5.00000E-01 1.00000E+00 5.00000E+00
 -1       180 2.50000E-01 1.00000E+00 5.00000E+00
 -1       181 5.00000E-01 1.00000E+00 5.50000E+00
 -1       182 7.50000E-01 1.00000E+00 6.00000E+00
 -1       183 5.00000E-01 1.00000E+00 6.00000E+00
 -1       184 2.50000E-01 1.00000E+00 6.00000E+00
 -1       185 5.00000E-01 1.00000E+00 6.50000E+00
 -1       186 7.50000E-01 1.00000E+00 7.00000E+00
 -1       187 5.00000E-01 1.00000E+00 7.00000E+00
 -1       188 2.50000E-01 1.00000E+00 7.00000E+00
 -1       189 5.00000E-01 1.00000E+00 7.50000E+00
 -1       190 0.00000E+00 5.00000E-01 5.00000E-01
 -1       191 0.00000E+00 7.50000E-01 1.00000E+00
 -1       192 0.00000E+00 5.00000E-01 1.00000E+00
 -1       193 0.00000E+00 2.50000E-01 1.00000E+00
 -1       194 0.00000E+00 5.00000E-01 1.50000E+00
 -1       195 0.00000E+00 7.50000E-01 2.00000E+00
 -1       196 0.00000E+00 5.00000E-01 2.00000E+00
 -1       197 0.00000E+00 2.50000E-01 2.00000E+00
 -1       198 0.00000E+00 5.00000E-01 2.50000E+00
 -1       199 0.00000E+00 7.50000E-01 3.00000E+00
 -1       200 0.00000E+00 5.00000E-01 3.00000E+00
 -1       201 0.00000E+00 2.50000E-01 3.00000E+00
 -1       202 0.00000E+00 5.00000E-01 3.50000E+00
 -1       203 0.00000E+00 7.50000E-01 4.00000E+00
 -1       204 0.00000E+00 5.00000E-01 4.00000E+00
 -1       205 0.00000E+00 2.50000E-01 4.00000E+00
 -1       206 0.00000E+00 5.00000E-01 4.50000E+00
 -1       207 0.00000E+00 7.50000E-01 5.00000E+00
 -1       208 0.00000E+00 5.00000E-01 5.00000E+00
 -1       209 0.00000E+00 2.50000E-01 5.00000E+00
 -1       210 0.00000E+00 5.00000E-01 5.50000E+00
 -1       211 0.00000E+00 7.50000E-01 6.00000E+00
 -1       212 0.00000E+00 5.00000E-01 6.00000E+00
 -1       213 0.00000E+00 2.50000E-01 6.00000E+00
 -1       214 0.00000E+00 5.00000E-01 6.50000E+00
 -1       215 0.00000E+00 7.50000E-01 7.00000E+00
 -1       216 0.00000E+00 5.00000E-01 7.00000E+00
 -1       217 0.00000E+00 2.50000E-01 7.00000E+00
 -1       218 0.00000E+00 5.00000E-01 7.50000E+00
 -1       219 5.00000E-01 5.00000E-01 5.00000E-01
 -1       220 5.00000E-01 2.50000E-01 1.00000E+00
 -1       221 2.50000E-01 5.00000E-01 1.00000E+00
 -1       222 5.00000E-01 5.00000E-01 1.00000E+00
 -1       223 7.50000E-01 5.00000E-01 1.00000E+00
 -1       224 5.00000E-01 7.50000E-01 1.00000E+00
 -1       225 5.00000E-01 5.00000E-01 1.50000E+00
 -1       226 5.00000E-01 2.50000E-01 2.00000E+00
 -1       227 2.50000E-01 5.00000E-01 2.00000E+00
 -1       228 5.00000E-01 5.00000E-01 2.00000E+00
 -1       229 7.50000E-01 5.00000E-01 2.00000E+00
 -1       230 5.00000E-01 7.50000E-01 2.00000E+00
 -1       231 5.00000E-01 5.00000E-01 2.50000E+00
 -1       232 5.00000E-01 2.50000E-01 3.00000E+00
 -1       233 2.50000E-01 5.00000E-01 3.00000E+00
 -1       234 5.00000E-01 5.00000E-01 3.00000E+00
 -1       235 7.50000E-01 5.00000E-01 3.00000E+00
 -1       236 5.00000E-01 7.50000E-01 3.00000E+00
 -1       237 5.00000E-01 5.00000E-01 3.50000E+00
 -1       238 5.00000E-01 2.50000E-01 4.00000E+00
 -1       239 2.50000E-01 5.00000E-01 4.00000E+00
 -1       240 5.00000E-01 5.00000E-01 4.00000E+00
 -1       241 7.50000E-01 5.00000E-01 4.00000E+00
 -1       242 5.00000E-01 7.50000E-01 4.00000E+00
 -1       243 5.00000E-01 5.00000E-01 4.50000E+00
 -1       244 5.00000E-01 2.50000E-01 5.00000E+00
 -1       245 2.50000E-01 5.00000E-01 5.00000E+00
 -1       246 5.00000E-01 5.00000E-01 5.00000E+00
 -1       247 7.50000E-01 5.00000E-01 5.00000E+00
 -1       248 5.00000E-01 7.50000E-01 5.00000E+00
 -1       249 5.00000E-01 5.00000E-01 5.50000E+00
 -1       250 5.00000E-01 2.50000E-01 6.00000E+00
 -1       251 2.50000E-01 5.00000E-01 6.00000E+00
 -1       252 5.00000E-01 5.00000E-01 6.00000E+00
 -1       253 7.50000E-01 5.00000E-01 6.00000E+00
 -1       254 5.00000E-01 7.50000E-01 6.00000E+00
 -1       255 5.00000E-01 5.00000E-01 6.50000E+00
 -1       256 5.00000E-01 2.50000E-01 7.00000E+00
 -1       257 2.50000E-01 5.00000E-01 7.00000E+00
 -1       258 5.00000E-01 5.00000E-01 7.00000E+00
 -1       259 7.50000E-01 5.00000E-01 7.00000E+00
 -1       260 5.00000E-01 7.50000E-01 7.00000E+00
 -1       261 5.00000E-01 5.00000E-01 7.50000E+00
 -3
    3C                            32                                     1
 -1         1    4    0    1
 -2         1        10        95        19        61       105       222       192         9        93
 -2        94        20        62       103       219       190       104       220       221       193
 -1         2    4    0    1
 -2        10         2        13        95       105        34       134       222        11        12
 -2        96        93       103        33       132       219       106       133       223       220
 -1         3    4    0    1
 -2        19        95        16         4       192       222       163        79        94        97
 -2        17        18       190       219       161        78       221       224       164       191
 -1         4    4    0    1
 -2        95        13         3        16       222       134        64       163        96        14
 -2        15        97       219       132        63       161       223       135       162       224
 -1         5    4    0    1
 -2        61       105       222       192        59       109       228       196       104       220
 -2       221       193        60       107       225       194       108       226       227       197
 -1         6    4    0    1
 -2       105        34       134       222       109        36       138       228       106       133
 -2       223       220       107        35       136       225       110       137       229       226
 -1         7    4    0    1
 -2       192       222       163        79       196       228       167        81       221       224
 -2       164       191       194       225       165        80       227       230       168       195
 -1         8    4    0    1
 -2       222       134        64       163       228       138        66       167       223       135
 -2       162       224       225       136        65       165       229       139       166       230
 -1         9    4    0    1
 -2        59       109       228       196        57       113       234       200       108       226
 -2       227       197        58       111       231       198       112       232       233       201
 -1        10    4    0    1
 -2       109        36       138       228       113        38       142       234       110       137
 -2       229       226       111        37       140       231       114       141       235       232
 -1        11    4    0    1
 -2       196       228       167        81       200       234       171        83       227       230
 -2       168       195       198       231       169        82       233       236       172       199
 -1        12    4    0    1
 -2       228       138        66       167       234       142        68       171       229       139
 -2       166       230       231       140        67       169       235       143       170       236
 -1        13    4    0    1
 -2        57       113       234       200        55       117       240       204       112       232
 -2       233       201        56       115       237       202       116       238       239       205
 -1        14    4    0    1
 -2       113        38       142       234       117        40       146       240       114       141
 -2       235       232       115        39       144       237       118       145       241       238
 -1        15    4    0    1
 -2       200       234       171        83       204       240       175        85       233       236
 -2       172       199       202       237       173        84       239       242       176       203
 -1        16    4    0    1
 -2       234       142        68       171       240       146        70       175       235       143
 -2       170       236       237       144        69       173       241       147       174       242
 -1        17    4    0    1
 -2        55       117       240       204        53       121       246       208       116       238
 -2       239       205        54       119       243       206       120       244       245       209
 -1        18    4    0    1
 -2       117        40       146       240       121        42       150       246       118       145
 -2       241       238       119        41       148       243       122       149       247       244
 -1        19    4    0    1
 -2       204       240       175        85       208       246       179        87       239       242
 -2       176       203       206       243       177        86       245       248       180       207
 -1        20    4    0    1
 -2       240       146        70       175       246       150        72       179       241       147
 -2       174       242       243       148        71       177       247       151       178       248
 -1        21    4    0    1
 -2        53       121       246       208        51       125       252       212       120       244
 -2       245       209        52       123       249       210       124       250       251       213
 -1        22    4    0    1
 -2       121        42       150       246       125        44       154       252       122       149
 -2       247       244       123        43       152       249       126       153       253       250
 -1        23    4    0    1
 -2       208       246       179        87       212       252       183        89       245       248
 -2       180       207       210       249       181        88       251       254       184       211
 -1        24    4    0    1
 -2       246       150        72       179       252       154        74       183       247       151
 -2       178       248       249       152        73       181       253       155       182       254
 -1        25    4    0    1
 -2        51       125       252       212        49       129       258       216       124       250
 -2       251       213        50       127       255       214       128       256       257       217
 -1        26    4    0    1
 -2       125        44       154       252       129        46       158       258       126       153
 -2       253       250       127        45       156       255       130       157       259       256
 -1        27    4    0    1
 -2       212       252       183        89       216       258       187        91       251       254
 -2       184       211       214       255       185        90       257       260       188       215
 -1        28    4    0    1
 -2       252       154        74       183       258       158        76       187       253       155
 -2       182       254       255       156        75       185       259       159       186       260
 -1        29    4    0    1
 -2        49       129       258       216         5        22       100        31       128       256
 -2       257       217        48       131       261       218        21        98        99        32
 -1        30    4    0    1
 -2       129        46       158       258        22         6        25       100       130       157
 -2       259       256       131        47       160       261        23        24       101        98
 -1        31    4    0    1
 -2       216       258       187        91        31       100        28         8       257       260
 -2       188       215       218       261       189        92        99       102        29        30
 -1        32    4    0    1
 -2       258       158        76       187       100        25         7        28       259       159
 -2       186       260       261       160        77       189       101        26        27       102
 -3
    1PSTEP                         1           1           1          
  100CL  101 5.00000E-03         261                     1    1           1
 -4  DISP        4    1
 -5  D1          1    2    1    0
 -5  D2          1    2    2    0
 -5  D3          1    2    3    0
 -5  ALL         1    2    0    0    1ALL
 -1         1 0.00000E+00 0.00000E+00 0.00000E+00
 -1         2 0.00000E+00 0.00000E+00 0.00000E+00
 -1         3 0.00000E+00 0.00000E+00 0.00000E+00
 -1         4 0.00000E+00 0.00000E+00 0.00000E+00
 -1         5 0.00000E+00 0.00000E+00 0.00000E+00
 -1         6 0.00000E+00 0.00000E+00 0.00000E+00
 -1         7 0.00000E+00 0.00000E+00 0.00000E+00
 -1         8 0.00000E+00 0.00000E+00 0.00000E+00
 -1         9 0.00000E+00 0.00000E+00 0.00000E+00
 -1        10 0.00000E+00 0.00000E+00 0.00000E+00
 -1        11 0.00000E+00 0.00000E+00 0.00000E+00
 -1        12 0.00000E+00 0.00000E+00 0.00000E+00
 -1        13 0.00000E+00 0.00000E+00 0.00000E+00
 -1        14 0.00000E+00 0.00000E+00 0.00000E+00
 -1        15 0.00000E+00 0.00000E+00 0.00000E+00
 -1        16 0.00000E+00 0.00000E+00 0.00000E+00
 -1        17 0.00000E+00 0.00000E+00 0.00000E+00
 -1        18 0.00000E+00 0.00000E+00 0.00000E+00
 -1        19 0.00000E+00 0.00000E+00 0.00000E+00
 -1        20 0.00000E+00 0.00000E+00 0.00000E+00
 -1        21 0.00000E+00 0.00000E+00 0.00000E+00
 -1        22 0.00000E+00 0.00000E+00 0.00000E+00
 -1        23 0.00000E+00 0.00000E+00 0.00000E+00
 -1        24 0.00000E+00 0.00000E+00 0.00000E+00
 -1        25 0.00000E+00 0.00000E+00 0.00000E+00
 -1        26 0.00000E+00 0.00000E+00 0.00000E+00
 -1        27 0.00000E+00 0.00000E+00 0.00000E+00
 -1        28 0.00000E+00 0.00000E+00 0.00000E+00
 -1        29 0.00000E+00 0.00000E+00 0.00000E+00
 -1        30 0.00000E+00 0.00000E+00 0.00000E+00
 -1        31 0.00000E+00 0.00000E+00 0.00000E+00
 -1        32 0.00000E+00 0.00000E+00 0.00000E+00
 -1        33 8.47595E-07-2.11188E-06-2.72466E-06
 -1        34 3.99570E-07-6.43924E-06-4.93841E-06
 -1        35 3.31493E-07-1.30195E-05-6.38939E-06
 -1        36 6.34948E-08-2.03107E-05-7.08400E-06
 -1        37-1.01574E-07-2.82019E-05-7.03424E-06
 -1        38-3.50158E-07-3.52997E-05-6.25764E-06
 -1        39-5.86825E-07-4.19024E-05-4.69101E-06
 -1        40-7.03694E-07-4.55865E-05-2.44347E-06
 -1        41-7.37731E-07-4.71449E-05 7.43641E-08
 -1        42-6.45787E-07-4.50943E-05 2.37745E-06
 -1        43-5.13803E-07-4.16114E-05 4.31956E-06
 -1        44-5.95501E-07-3.58606E-05 6.03891E-06
 -1        45-3.69873E-07-2.87466E-05 7.76702E-06
 -1        46-2.65271E-07-1.85261E-05 8.49880E-06
 -1        47 1.59191E-06-8.05998E-06 6.13785E-06
 -1        48-1.59191E-06-8.05998E-06 6.13785E-06
 -1        49 2.65272E-07-1.85262E-05 8.49880E-06
 -1        50 3.69873E-07-2.87466E-05 7.76702E-06
 -1        51 5.95501E-07-3.58606E-05 6.03891E-06
 -1        52 5.13803E-07-4.16114E-05 4.31956E-06
 -1        53 6.45787E-07-4.50943E-05 2.37745E-06
 -1        54 7.37730E-07-4.71449E-05 7.43642E-08
 -1        55 7.03693E-07-4.55865E-05-2.44347E-06
 -1        56 5.86824E-07-4.19024E-05-4.69101E-06
 -1        57 3.50157E-07-3.52997E-05-6.25764E-06
 -1        58 1.01573E-07-2.82019E-05-7.03424E-06
 -1        59-6.34955E-08-2.03107E-05-7.08400E-06
 -1        60-3.31493E-07-1.30195E-05-6.38939E-06
 -1        61-3.99570E-07-6.43924E-06-4.93841E-06
 -1        62-8.47595E-07-2.11188E-06-2.72466E-06
 -1        63-8.39992E-07-2.10555E-06 2.70788E-06
 -1        64-3.98932E-07-6.44617E-06 4.90164E-06
 -1        65-3.22914E-07-1.30034E-05 6.33591E-06
 -1        66-7.20398E-08-2.03364E-05 7.00598E-06
 -1        67 1.25847E-07-2.81816E-05 6.94984E-06
 -1        68 3.63066E-07-3.54682E-05 6.14383E-06
 -1        69 5.84572E-07-4.17545E-05 4.54883E-06
 -1        70 7.65727E-07-4.58273E-05 2.25824E-06
 -1        71 7.35181E-07-4.69940E-05-3.00631E-07
 -1        72 6.41022E-07-4.52558E-05-2.63668E-06
 -1        73 5.54361E-07-4.16015E-05-4.60300E-06
 -1        74 5.73510E-07-3.59921E-05-6.32641E-06
 -1        75 2.95923E-07-2.86050E-05-7.98399E-06
 -1        76 2.30758E-07-1.91128E-05-8.63245E-06
 -1        77-1.68811E-06-7.90633E-06-6.20206E-06
 -1        78 8.39992E-07-2.10555E-06 2.70788E-06
 -1        79 3.98932E-07-6.44617E-06 4.90164E-06
 -1        80 3.22914E-07-1.30034E-05 6.33591E-06
 -1        81 7.20396E-08-2.03364E-05 7.00598E-06
 -1        82-1.25847E-07-2.81816E-05 6.94984E-06
 -1        83-3.63067E-07-3.54682E-05 6.14383E-06
 -1        84-5.84572E-07-4.17545E-05 4.54883E-06
 -1        85-7.65727E-07-4.58273E-05 2.25824E-06
 -1        86-7.35181E-07-4.69940E-05-3.00631E-07
 -1        87-6.41022E-07-4.52558E-05-2.63668E-06
 -1        88-5.54361E-07-4.16015E-05-4.60300E-06
 -1        89-5.73510E-07-3.59921E-05-6.32641E-06
 -1        90-2.95923E-07-2.86050E-05-7.98399E-06
 -1        91-2.30758E-07-1.91128E-05-8.63245E-06
 -1        92 1.68811E-06-7.90633E-06-6.20206E-06
 -1        93 0.00000E+00 0.00000E+00 0.00000E+00
 -1        94 0.00000E+00 0.00000E+00 0.00000E+00
 -1        95 0.00000E+00 0.00000E+00 0.00000E+00
 -1        96 0.00000E+00 0.00000E+00 0.00000E+00
 -1        97 0.00000E+00 0.00000E+00 0.00000E+00
 -1        98 0.00000E+00 0.00000E+00 0.00000E+00
 -1        99 0.00000E+00 0.00000E+00 0.00000E+00
 -1       100 0.00000E+00 0.00000E+00 0.00000E+00
 -1       101 0.00000E+00 0.00000E+00 0.00000E+00
 -1       102 0.00000E+00 0.00000E+00 0.00000E+00
 -1       103-4.76971E-14-2.45759E-06-2.67363E-06
 -1       104-1.96784E-07-6.69292E-06-5.02240E-06
 -1       105-1.32695E-13-6.74532E-06-5.05563E-06
 -1       106 1.96783E-07-6.69292E-06-5.02240E-06
 -1       107-2.31614E-13-1.31332E-05-6.42298E-06
 -1       108-3.13863E-08-2.03979E-05-7.14136E-06
 -1       109-3.38838E-13-2.05127E-05-7.15085E-06
 -1       110 3.13856E-08-2.03979E-05-7.14136E-06
 -1       111-4.40892E-13-2.80365E-05-7.07970E-06
 -1       112 1.72484E-07-3.54488E-05-6.32549E-06
 -1       113-5.20682E-13-3.55403E-05-6.32499E-06
 -1       114-1.72485E-07-3.54488E-05-6.32549E-06
 -1       115-5.45069E-13-4.13446E-05-4.73108E-06
 -1       116 3.63667E-07-4.58258E-05-2.46356E-06
 -1       117-5.18845E-13-4.67596E-05-2.45840E-06
 -1       118-3.63668E-07-4.58258E-05-2.46356E-06
 -1       119-4.26114E-13-4.65105E-05 8.15419E-08
 -1       120 3.20349E-07-4.51542E-05 2.42745E-06
 -1       121-2.73427E-13-4.52036E-05 2.42228E-06
 -1       122-3.20350E-07-4.51542E-05 2.42745E-06
 -1       123-9.01911E-14-4.12250E-05 4.33326E-06
 -1       124 3.00039E-07-3.56785E-05 6.05191E-06
 -1       125 1.31172E-13-3.57651E-05 6.12007E-06
 -1       126-3.00038E-07-3.56785E-05 6.05191E-06
 -1       127 4.07535E-13-2.84380E-05 7.79627E-06
 -1       128 1.44172E-07-1.86156E-05 8.80734E-06
 -1       129 6.18316E-13-1.85916E-05 8.83975E-06
 -1       130-1.44171E-07-1.86156E-05 8.80734E-06
 -1       131 4.53913E-13-8.63423E-06 6.15762E-06
 -1       132 2.44104E-09-1.60598E-06-9.20240E-09
 -1       133 2.03921E-07-6.32689E-06-2.34084E-06
 -1       134 3.15904E-09-6.41989E-06-1.53231E-08
 -1       135-1.99744E-07-6.33132E-06 2.30695E-06
 -1       136 2.57985E-09-1.27519E-05-2.76440E-08
 -1       137 3.45254E-08-2.03677E-05-3.44634E-06
 -1       138 1.10266E-08-2.04233E-05-2.96720E-08
 -1       139-3.17852E-08-2.03771E-05 3.37743E-06
 -1       140-6.57506E-09-2.82118E-05-5.31985E-08
 -1       141-1.73555E-07-3.55613E-05-3.00787E-06
 -1       142-3.14893E-09-3.57661E-05-3.44073E-08
 -1       143 1.86247E-07-3.56590E-05 2.91551E-06
 -1       144 1.78960E-09-4.19520E-05-5.83177E-08
 -1       145-3.99296E-07-4.60628E-05-1.20296E-06
 -1       146-2.75034E-08-4.62387E-05-9.32955E-08
 -1       147 3.40939E-07-4.61396E-05 1.01734E-06
 -1       148 3.25263E-09-4.72499E-05-1.25750E-07
 -1       149-3.24342E-07-4.54676E-05 1.02934E-06
 -1       150 1.02890E-10-4.57321E-05-1.45507E-07
 -1       151 3.32180E-07-4.55635E-05-1.30494E-06
 -1       152-1.16040E-08-4.18361E-05-1.39574E-07
 -1       153-2.73369E-07-3.61957E-05 3.00127E-06
 -1       154 1.92672E-08-3.63096E-05-1.56349E-07
 -1       155 2.73706E-07-3.62503E-05-3.29929E-06
 -1       156 6.91319E-08-2.85891E-05-2.06897E-07
 -1       157-7.67916E-08-1.87669E-05 3.62963E-06
 -1       158 9.35535E-08-1.92120E-05-6.97926E-08
 -1       159 3.68811E-07-1.91422E-05-3.76509E-06
 -1       160 6.87053E-08-7.16273E-06 7.36376E-08
 -1       161 4.38759E-15-2.45425E-06 2.65578E-06
 -1       162-1.96473E-07-6.68687E-06 4.98666E-06
 -1       163-2.51846E-14-6.73368E-06 5.02250E-06