    1C
    1UUSER                                                              
    1UDATE              28.june.2018                                    
    1UTIME              12:54:16                                        
    1UHOST                                                              
    1UPGM               CalculiX                                        
    1UVERSION           Version 2.13                             
    1UCOMPILETIME       jue jun 14 00:40:39 CEST 2018                    
    1UDIR                                                               
    1UDBN                                                               
    1UMAT    1EL                                                        
    2C                           201                                     1
 -1         1 0.00000E+00 0.00000E+00 0.00000E+00
 -1         2 1.00000E+00 0.00000E+00 0.00000E+00
 -1         3 1.00000E+00 1.00000E+00 0.00000E+00
 -1         4 0.00000E+00 1.00000E+00 0.00000E+00
 -1         9 2.50000E-01 0.00000E+00 0.00000E+00
 -1        10 5.00000E-01 0.00000E+00 0.00000E+00
 -1        11 7.50000E-01 0.00000E+00 0.00000E+00
 -1        12 1.00000E+00 2.50000E-01 0.00000E+00
 -1        13 1.00000E+00 5.00000E-01 0.00000E+00
 -1        14 1.00000E+00 7.50000E-01 0.00000E+00
 -1        15 7.50000E-01 1.00000E+00 0.00000E+00
 -1        16 5.00000E-01 1.00000E+00 0.00000E+00
 -1        17 2.50000E-01 1.00000E+00 0.00000E+00
 -1        18 0.00000E+00 7.50000E-01 0.00000E+00
 -1        19 0.00000E+00 5.00000E-01 0.00000E+00
 -1        20 0.00000E+00 2.50000E-01 0.00000E+00
 -1        33 1.00000E+00 0.00000E+00 5.00000E-01
 -1        34 1.00000E+00 0.00000E+00 1.00000E+00
 -1        35 1.00000E+00 0.00000E+00 1.50000E+00
 -1        36 1.00000E+00 0.00000E+00 2.00000E+00
 -1        37 1.00000E+00 0.00000E+00 2.50000E+00
 -1        38 1.00000E+00 0.00000E+00 3.00000E+00
 -1        39 1.00000E+00 0.00000E+00 3.50000E+00
 -1        40 1.00000E+00 0.00000E+00 4.00000E+00
 -1        41 1.00000E+00 0.00000E+00 4.50000E+00
 -1        42 1.00000E+00 0.00000E+00 5.00000E+00
 -1        43 1.00000E+00 0.00000E+00 5.50000E+00
 -1        44 1.00000E+00 0.00000E+00 6.00000E+00
 -1        51 0.00000E+00 0.00000E+00 6.00000E+00
 -1        52 0.00000E+00 0.00000E+00 5.50000E+00
 -1        53 0.00000E+00 0.00000E+00 5.00000E+00
 -1        54 0.00000E+00 0.00000E+00 4.50000E+00
 -1        55 0.00000E+00 0.00000E+00 4.00000E+00
 -1        56 0.00000E+00 0.00000E+00 3.50000E+00
 -1        57 0.00000E+00 0.00000E+00 3.00000E+00
 -1        58 0.00000E+00 0.00000E+00 2.50000E+00
 -1        59 0.00000E+00 0.00000E+00 2.00000E+00
 -1        60 0.00000E+00 0.00000E+00 1.50000E+00
 -1        61 0.00000E+00 0.00000E+00 1.00000E+00
 -1        62 0.00000E+00 0.00000E+00 5.00000E-01
 -1        63 1.00000E+00 1.00000E+00 5.00000E-01
 -1        64 1.00000E+00 1.00000E+00 1.00000E+00
 -1        65 1.00000E+00 1.00000E+00 1.50000E+00
 -1        66 1.00000E+00 1.00000E+00 2.00000E+00
 -1        67 1.00000E+00 1.00000E+00 2.50000E+00
 -1        68 1.00000E+00 1.00000E+00 3.00000E+00
 -1        69 1.00000E+00 1.00000E+00 3.50000E+00
 -1        70 1.00000E+00 1.00000E+00 4.00000E+00
 -1        71 1.00000E+00 1.00000E+00 4.50000E+00
 -1        72 1.00000E+00 1.00000E+00 5.00000E+00
 -1        73 1.00000E+00 1.00000E+00 5.50000E+00
 -1        74 1.00000E+00 1.00000E+00 6.00000E+00
 -1        78 0.00000E+00 1.00000E+00 5.00000E-01
 -1        79 0.00000E+00 1.00000E+00 1.00000E+00
 -1        80 0.00000E+00 1.00000E+00 1.50000E+00
 -1        81 0.00000E+00 1.00000E+00 2.00000E+00
 -1        82 0.00000E+00 1.00000E+00 2.50000E+00
 -1        83 0.00000E+00 1.00000E+00 3.00000E+00
 -1        84 0.00000E+00 1.00000E+00 3.50000E+00
 -1        85 0.00000E+00 1.00000E+00 4.00000E+00
 -1        86 0.00000E+00 1.00000E+00 4.50000E+00
 -1        87 0.00000E+00 1.00000E+00 5.00000E+00
 -1        88 0.00000E+00 1.00000E+00 5.50000E+00
 -1        89 0.00000E+00 1.00000E+00 6.00000E+00
 -1        93 5.00000E-01 2.50000E-01 0.00000E+00
 -1        94 2.50000E-01 5.00000E-01 0.00000E+00
 -1        95 5.00000E-01 5.00000E-01 0.00000E+00
 -1        96 7.50000E-01 5.00000E-01 0.00000E+00
 -1        97 5.00000E-01 7.50000E-01 0.00000E+00
 -1       103 5.00000E-01 0.00000E+00 5.00000E-01
 -1       104 2.50000E-01 0.00000E+00 1.00000E+00
 -1       105 5.00000E-01 0.00000E+00 1.00000E+00
 -1       106 7.50000E-01 0.00000E+00 1.00000E+00
 -1       107 5.00000E-01 0.00000E+00 1.50000E+00
 -1       108 2.50000E-01 0.00000E+00 2.00000E+00
 -1       109 5.00000E-01 0.00000E+00 2.00000E+00
 -1       110 7.50000E-01 0.00000E+00 2.00000E+00
 -1       111 5.00000E-01 0.00000E+00 2.50000E+00
 -1       112 2.50000E-01 0.00000E+00 3.00000E+00
 -1       113 5.00000E-01 0.00000E+00 3.00000E+00
 -1       114 7.50000E-01 0.00000E+00 3.00000E+00
 -1       115 5.00000E-01 0.00000E+00 3.50000E+00
 -1       116 2.50000E-01 0.00000E+00 4.00000E+00
 -1       117 5.00000E-01 0.00000E+00 4.00000E+00
 -1       118 7.50000E-01 0.00000E+00 4.00000E+00
 -1       119 5.00000E-01 0.00000E+00 4.50000E+00
 -1       120 2.50000E-01 0.00000E+00 5.00000E+00
 -1       121 5.00000E-01 0.00000E+00 5.00000E+00
 -1       122 7.50000E-01 0.00000E+00 5.00000E+00
 -1       123 5.00000E-01 0.00000E+00 5.50000E+00
 -1       124 2.50000E-01 0.00000E+00 6.00000E+00
 -1       125 5.00000E-01 0.00000E+00 6.00000E+00
 -1       126 7.50000E-01 0.00000E+00 6.00000E+00
 -1       132 1.00000E+00 5.00000E-01 5.00000E-01
 -1       133 1.00000E+00 2.50000E-01 1.00000E+00
 -1       134 1.00000E+00 5.00000E-01 1.00000E+00
 -1       135 1.00000E+00 7.50000E-01 1.00000E+00
 -1       136 1.00000E+00 5.00000E-01 1.50000E+00
 -1       137 1.00000E+00 2.50000E-01 2.00000E+00
 -1       138 1.00000E+00 5.00000E-01 2.00000E+00
 -1       139 1.00000E+00 7.50000E-01 2.00000E+00
 -1       140 1.00000E+00 5.00000E-01 2.50000E+00
 -1       141 1.00000E+00 2.50000E-01 3.00000E+00
 -1       142 1.00000E+00 5.00000E-01 3.00000E+00
 -1       143 1.00000E+00 7.50000E-01 3.00000E+00
 -1       144 1.00000E+00 5.00000E-01 3.50000E+00
 -1       145 1.00000E+00 2.50000E-01 4.00000E+00
 -1       146 1.00000E+00 5.00000E-01 4.00000E+00
 -1       147 1.00000E+00 7.50000E-01 4.00000E+00
 -1       148 1.00000E+00 5.00000E-01 4.50000E+00
 -1       149 1.00000E+00 2.50000E-01 5.00000E+00
 -1       150 1.00000E+00 5.00000E-01 5.00000E+00
 -1       151 1.00000E+00 7.50000E-01 5.00000E+00
 -1       152 1.00000E+00 5.00000E-01 5.50000E+00
 -1       153 1.00000E+00 2.50000E-01 6.00000E+00
 -1       154 1.00000E+00 5.00000E-01 6.00000E+00
 -1       155 1.00000E+00 7.50000E-01 6.00000E+00
 -1       161 5.00000E-01 1.00000E+00 5.00000E-01
 -1       162 7.50000E-01 1.00000E+00 1.00000E+00
 -1       163 5.00000E-01 1.00000E+00 1.00000E+00
 -1       164 2.50000E-01 1.00000E+00 1.00000E+00
 -1       165 5.00000E-01 1.00000E+00 1.50000E+00
 -1       166 7.50000E-01 1.00000E+00 2.00000E+00
 -1       167 5.00000E-01 1.00000E+00 2.00000E+00
 -1       168 2.50000E-01 1.00000E+00 2.00000E+00
 -1       169 5.00000E-01 1.00000E+00 2.50000E+00
 -1       170 7.50000E-01 1.00000E+00 3.00000E+00
 -1       171 5.00000E-01 1.00000E+00 3.00000E+00
 -1       172 2.50000E-01 1.00000E+00 3.00000E+00
 -1       173 5.00000E-01 1.00000E+00 3.50000E+00
 -1       174 7.50000E-01 1.00000E+00 4.00000E+00
 -1       175 5.00000E-01 1.00000E+00 4.00000E+00
 -1       176 2.50000E-01 1.00000E+00 4.00000E+00
 -1       177 5.00000E-01 1.00000E+00 4.50000E+00
 -1       178 7.50000E-01 1.00000E+00 5.00000E+00
 -1       179 5.00000E-01 1.00000E+00 5.00000E+00
 -1       180 2.50000E-01 1.00000E+00 5.00000E+00
 -1       181 5.00000E-01 1.00000E+00 5.50000E+00
 -1       182 7.50000E-01 1.00000E+00 6.00000E+00
 -1       183 5.00000E-01 1.00000E+00 6.00000E+00
 -1       184 2.50000E-01 1.00000E+00 6.00000E+00
 -1       190 0.00000E+00 5.00000E-01 5.00000E-01
 -1       191 0.00000E+00 7.50000E-01 1.00000E+00
 -1       192 0.00000E+00 5.00000E-01 1.00000E+00
 -1       193 0.00000E+00 2.50000E-01 1.00000E+00
 -1       194 0.00000E+00 5.00000E-01 1.50000E+00
 -1       195 0.00000E+00 7.50000E-01 2.00000E+00
 -1       196 0.00000E+00 5.00000E-01 2.00000E+00
 -1       197 0.00000E+00 2.50000E-01 2.00000E+00
 -1       198 0.00000E+00 5.00000E-01 2.50000E+00
 -1       199 0.00000E+00 7.50000E-01 3.00000E+00
 -1       200 0.00000E+00 5.00000E-01 3.00000E+00
 -1       201 0.00000E+00 2.50000E-01 3.00000E+00
 -1       202 0.00000E+00 5.00000E-01 3.50000E+00
 -1       203 0.00000E+00 7.50000E-01 4.00000E+00
 -1       204 0.00000E+00 5.00000E-01 4.00000E+00
 -1       205 0.00000E+00 2.50000E-01 4.00000E+00
 -1       206 0.00000E+00 5.00000E-01 4.50000E+00
 -1       207 0.00000E+00 7.50000E-01 5.00000E+00
 -1       208 0.00000E+00 5.00000E-01 5.00000E+00
 -1       209 0.00000E+00 2.50000E-01 5.00000E+00
 -1       210 0.00000E+00 5.00000E-01 5.50000E+00
 -1       211 0.00000E+00 7.50000E-01 6.00000E+00
 -1       212 0.00000E+00 5.00000E-01 6.00000E+00
 -1       213 0.00000E+00 2.50000E-01 6.00000E+00
 -1       219 5.00000E-01 5.00000E-01 5.00000E-01
 -1       220 5.00000E-01 2.50000E-01 1.00000E+00
 -1       221 2.50000E-01 5.00000E-01 1.00000E+00
 -1       222 5.00000E-01 5.00000E-01 1.00000E+00
 -1       223 7.50000E-01 5.00000E-01 1.00000E+00
 -1       224 5.00000E-01 7.50000E-01 1.00000E+00
 -1       225 5.00000E-01 5.00000E-01 1.50000E+00
 -1       226 5.00000E-01 2.50000E-01 2.00000E+00
 -1       227 2.50000E-01 5.00000E-01 2.00000E+00
 -1       228 5.00000E-01 5.00000E-01 2.00000E+00
 -1       229 7.50000E-01 5.00000E-01 2.00000E+00
 -1       230 5.00000E-01 7.50000E-01 2.00000E+00
 -1       231 5.00000E-01 5.00000E-01 2.50000E+00
 -1       232 5.00000E-01 2.50000E-01 3.00000E+00
 -1       233 2.50000E-01 5.00000E-01 3.00000E+00
 -1       234 5.00000E-01 5.00000E-01 3.00000E+00
 -1       235 7.50000E-01 5.00000E-01 3.00000E+00
 -1       236 5.00000E-01 7.50000E-01 3.00000E+00
 -1       237 5.00000E-01 5.00000E-01 3.50000E+00
 -1       238 5.00000E-01 2.50000E-01 4.00000E+00
 -1       239 2.50000E-01 5.00000E-01 4.00000E+00
 -1       240 5.00000E-01 5.00000E-01 4.00000E+00
 -1       241 7.50000E-01 5.00000E-01 4.00000E+00
 -1       242 5.00000E-01 7.50000E-01 4.00000E+00
 -1       243 5.00000E-01 5.00000E-01 4.50000E+00
 -1       244 5.00000E-01 2.50000E-01 5.00000E+00
 -1       245 2.50000E-01 5.00000E-01 5.00000E+00
 -1       246 5.00000E-01 5.00000E-01 5.00000E+00
 -1       247 7.50000E-01 5.00000E-01 5.00000E+00
 -1       248 5.00000E-01 7.50000E-01 5.00000E+00
 -1       249 5.00000E-01 5.00000E-01 5.50000E+00
 -1       250 5.00000E-01 2.50000E-01 6.00000E+00
 -1       251 2.50000E-01 5.00000E-01 6.00000E+00
 -1       252 5.00000E-01 5.00000E-01 6.00000E+00
 -1       253 7.50000E-01 5.00000E-01 6.00000E+00
 -1       254 5.00000E-01 7.50000E-01 6.00000E+00
 -3
    3C                            24                                     1
 -1         1    4    0    1
 -2         1        10        95        19        61       105       222       192         9        93
 -2        94        20        62       103       219       190       104       220       221       193
 -1         2    4    0    1
 -2        10         2        13        95       105        34       134       222        11        12
 -2        96        93       103        33       132       219       106       133       223       220
 -1         3    4    0    1
 -2        19        95        16         4       192       222       163        79        94        97
 -2        17        18       190       219       161        78       221       224       164       191
 -1         4    4    0    1
 -2        95        13         3        16       222       134        64       163        96        14
 -2        15        97       219       132        63       161       223       135       162       224
 -1         5    4    0    1
 -2        61       105       222       192        59       109       228       196       104       220
 -2       221       193        60       107       225       194       108       226       227       197
 -1         6    4    0    1
 -2       105        34       134       222       109        36       138       228       106       133
 -2       223       220       107        35       136       225       110       137       229       226
 -1         7    4    0    1
 -2       192       222       163        79       196       228       167        81       221       224
 -2       164       191       194       225       165        80       227       230       168       195
 -1         8    4    0    1
 -2       222       134        64       163       228       138        66       167       223       135
 -2       162       224       225       136        65       165       229       139       166       230
 -1         9    4    0    1
 -2        59       109       228       196        57       113       234       200       108       226
 -2       227       197        58       111       231       198       112       232       233       201
 -1        10    4    0    1
 -2       109        36       138       228       113        38       142       234       110       137
 -2       229       226       111        37       140       231       114       141       235       232
 -1        11    4    0    1
 -2       196       228       167        81       200       234       171        83       227       230
 -2       168       195       198       231       169        82       233       236       172       199
 -1        12    4    0    1
 -2       228       138        66       167       234       142        68       171       229       139
 -2       166       230       231       140        67       169       235       143       170       236
 -1        13    4    0    1
 -2        57       113       234       200        55       117       240       204       112       232
 -2       233       201        56       115       237       202       116       238       239       205
 -1        14    4    0    1
 -2       113        38       142       234       117        40       146       240       114       141
 -2       235       232       115        39       144       237       118       145       241       238
 -1        15    4    0    1
 -2       200       234       171        83       204       240       175        85       233       236
 -2       172       199       202       237       173        84       239       242       176       203
 -1        16    4    0    1
 -2       234       142        68       171       240       146        70       175       235       143
 -2       170       236       237       144        69       173       241       147       174       242
 -1        17    4    0    1
 -2        55       117       240       204        53       121       246       208       116       238
 -2       239       205        54       119       243       206       120       244       245       209
 -1        18    4    0    1
 -2       117        40       146       240       121        42       150       246       118       145
 -2       241       238       119        41       148       243       122       149       247       244
 -1        19    4    0    1
 -2       204       240       175        85       208       246       179        87       239       242
 -2       176       203       206       243       177        86       245       248       180       207
 -1        20    4    0    1
 -2       240       146        70       175       246       150        72       179       241       147
 -2       174       242       243       148        71       177       247       151       178       248
 -1        21    4    0    1
 -2        53       121       246       208        51       125       252       212       120       244
 -2       245       209        52       123       249       210       124       250       251       213
 -1        22    4    0    1
 -2       121        42       150       246       125        44       154       252       122       149
 -2       247       244       123        43       152       249       126       153       253       250
 -1        23    4    0    1
 -2       208       246       179        87       212       252       183        89       245       248
 -2       180       207       210       249       181        88       251       254       184       211
 -1        24    4    0    1
 -2       246       150        72       179       252       154        74       183       247       151
 -2       178       248       249       152        73       181       253       155       182       254
 -3
    1PSTEP                         1           1           1          
  100CL  101 1.00000E-02         201                     1    1           1
 -4  DISP        4    1
 -5  D1          1    2    1    0
 -5  D2          1    2    2    0
 -5  D3          1    2    3    0
 -5  ALL         1    2    0    0    1ALL
 -1         1 0.00000E+00 0.00000E+00 0.00000E+00
 -1         2 0.00000E+00 0.00000E+00 0.00000E+00
 -1         3 0.00000E+00 0.00000E+00 0.00000E+00
 -1         4 0.00000E+00 0.00000E+00 0.00000E+00
 -1         9 0.00000E+00 0.00000E+00 0.00000E+00
 -1        10 0.00000E+00 0.00000E+00 0.00000E+00
 -1        11 0.00000E+00 0.00000E+00 0.00000E+00
 -1        12 0.00000E+00 0.00000E+00 0.00000E+00
 -1        13 0.00000E+00 0.00000E+00 0.00000E+00
 -1        14 0.00000E+00 0.00000E+00 0.00000E+00
 -1        15 0.00000E+00 0.00000E+00 0.00000E+00
 -1        16 0.00000E+00 0.00000E+00 0.00000E+00
 -1        17 0.00000E+00 0.00000E+00 0.00000E+00
 -1        18 0.00000E+00 0.00000E+00 0.00000E+00
 -1        19 0.00000E+00 0.00000E+00 0.00000E+00
 -1        20 0.00000E+00 0.00000E+00 0.00000E+00
 -1        33 3.97370E-05-9.81123E-05-1.27831E-04
 -1        34 1.92836E-05-3.03440E-04-2.33134E-04
 -1        35 1.58831E-05-6.10631E-04-3.01406E-04
 -1        36 5.56203E-06-9.60154E-04-3.35576E-04
 -1        37-4.97257E-06-1.32868E-03-3.38091E-04
 -1        38-1.61382E-05-1.69535E-03-3.12638E-04
 -1        39-2.58526E-05-1.99679E-03-2.31383E-04
 -1        40-1.87704E-05-2.21367E-03-1.17061E-04
 -1        41-4.09133E-05-2.25261E-03-2.77645E-05
 -1        42-5.23552E-05-2.32459E-03-2.52200E-05
 -1        43 4.60493E-05-2.11679E-03 9.09740E-05
 -1        44 1.55053E-04-2.02128E-03 2.88899E-04
 -1        51-1.55028E-04-2.02123E-03 2.88884E-04
 -1        52-4.59238E-05-2.11678E-03 9.09631E-05
 -1        53 5.24671E-05-2.32457E-03-2.52512E-05
 -1        54 4.10804E-05-2.25261E-03-2.77699E-05
 -1        55 1.89171E-05-2.21367E-03-1.17053E-04
 -1        56 2.59945E-05-1.99679E-03-2.31366E-04
 -1        57 1.62536E-05-1.69535E-03-3.12617E-04
 -1        58 5.06866E-06-1.32867E-03-3.38067E-04
 -1        59-5.49489E-06-9.60150E-04-3.35552E-04
 -1        60-1.58395E-05-6.10626E-04-3.01384E-04
 -1        61-1.92631E-05-3.03436E-04-2.33116E-04
 -1        62-3.97303E-05-9.81083E-05-1.27821E-04
 -1        63-3.96186E-05-9.79473E-05 1.27500E-04
 -1        64-1.92452E-05-3.03388E-04 2.32425E-04
 -1        65-1.56179E-05-6.10583E-04 3.00414E-04
 -1        66-5.47026E-06-9.60762E-04 3.34263E-04
 -1        67 5.06495E-06-1.32777E-03 3.36483E-04
 -1        68 1.56694E-05-1.69544E-03 3.10254E-04
 -1        69 2.74802E-05-1.99775E-03 2.28846E-04
 -1        70 2.10779E-05-2.22218E-03 1.14701E-04
 -1        71 3.64848E-05-2.24129E-03 2.49359E-05
 -1        72 3.72518E-05-2.30017E-03 1.87325E-05
 -1        73-2.15767E-05-2.15528E-03-9.89457E-05
 -1        74-1.30949E-04-2.10875E-03-2.93282E-04
 -1        78 3.96272E-05-9.79494E-05 1.27509E-04
 -1        79 1.92703E-05-3.03387E-04 2.32443E-04
 -1        80 1.56678E-05-6.10581E-04 3.00437E-04
 -1        81 5.54694E-06-9.60757E-04 3.34288E-04
 -1        82-4.95850E-06-1.32776E-03 3.36508E-04
 -1        83-1.55382E-05-1.69543E-03 3.10275E-04
 -1        84-2.73240E-05-1.99774E-03 2.28863E-04
 -1        85-2.09085E-05-2.22217E-03 1.14708E-04
 -1        86-3.63030E-05-2.24128E-03 2.49312E-05
 -1        87-3.70971E-05-2.30016E-03 1.87047E-05
 -1        88 2.17248E-05-2.15527E-03-9.89637E-05
 -1        89 1.31039E-04-2.10879E-03-2.93340E-04
 -1        93 0.00000E+00 0.00000E+00 0.00000E+00
 -1        94 0.00000E+00 0.00000E+00 0.00000E+00
 -1        95 0.00000E+00 0.00000E+00 0.00000E+00
 -1        96 0.00000E+00 0.00000E+00 0.00000E+00
 -1        97 0.00000E+00 0.00000E+00 0.00000E+00
 -1       103 2.34658E-09-1.14637E-04-1.25399E-04
 -1       104-9.58805E-06-3.14913E-04-2.37117E-04
 -1       105 1.06235E-08-3.16463E-04-2.38690E-04
 -1       106 9.60856E-06-3.14915E-04-2.37126E-04
 -1       107 2.10470E-08-6.17500E-04-3.03126E-04
 -1       108-2.30536E-06-9.61596E-04-3.37754E-04
 -1       109 3.48841E-08-9.65757E-04-3.38123E-04
 -1       110 2.37389E-06-9.61598E-04-3.37766E-04
 -1       111 4.71113E-08-1.32416E-03-3.39145E-04
 -1       112 6.53835E-06-1.69749E-03-3.17161E-04
 -1       113 6.17051E-08-1.69067E-03-3.17574E-04
 -1       114-6.41904E-06-1.69750E-03-3.17172E-04
 -1       115 6.94331E-08-1.98370E-03-2.36254E-04
 -1       116 1.56595E-05-2.19136E-03-1.14300E-04
 -1       117 8.26748E-08-2.22454E-03-1.12240E-04
 -1       118-1.55023E-05-2.19136E-03-1.14300E-04
 -1       119 7.60305E-08-2.21835E-03-1.24411E-05
 -1       120 3.01133E-06-2.38235E-03-3.22947E-05
 -1       121 8.50963E-08-2.29052E-03-4.53763E-05
 -1       122-2.87188E-06-2.38236E-03-3.22964E-05
 -1       123 5.28526E-08-2.17510E-03 3.53880E-05
 -1       124 8.93093E-06-1.83860E-03 2.72828E-04
 -1       125 8.17128E-08-2.20176E-03 2.86118E-04
 -1       126-8.83145E-06-1.83864E-03 2.72899E-04
 -1       132 7.14166E-08-7.47386E-05-1.55033E-07
 -1       133 9.97880E-06-2.96131E-04-1.10044E-04
 -1       134 9.48389E-08-2.99212E-04-2.78936E-07
 -1       135-9.88579E-06-2.96142E-04 1.09387E-04
 -1       136 9.39112E-09-6.00244E-04-5.33838E-07
 -1       137 2.04079E-06-9.60718E-04-1.64418E-04
 -1       138 8.60299E-08-9.58624E-04-7.00067E-07
 -1       139-1.86188E-06-9.60875E-04 1.63133E-04
 -1       140 2.05970E-07-1.33319E-03-8.75167E-07
 -1       141-4.89374E-06-1.68715E-03-1.45863E-04
 -1       142 5.69847E-07-1.68777E-03-4.93278E-07
 -1       143 5.09762E-06-1.68775E-03 1.43954E-04
 -1       144-7.45404E-07-2.02100E-03-1.19437E-06
 -1       145-2.18734E-05-2.24166E-03-6.68257E-05
 -1       146-1.14026E-06-2.21229E-03-2.32420E-06
 -1       147 2.18258E-05-2.24389E-03 6.38764E-05
 -1       148 2.59686E-06-2.26733E-03-2.22341E-06
 -1       149 2.52343E-05-2.15275E-03 2.06752E-06
 -1       150 7.93999E-06-2.15740E-03-2.20975E-07
 -1       151-2.55166E-05-2.14655E-03-6.47867E-06
 -1       152-1.16658E-05-2.31078E-03 1.06890E-06
 -1       153-1.25953E-04-2.36397E-03 1.27539E-04
 -1       154-1.11951E-05-2.02387E-03-1.97192E-06
 -1       155 1.26667E-04-2.38691E-03-1.31988E-04
 -1       161 3.39911E-09-1.14524E-04 1.25050E-04
 -1       162-9.56264E-06-3.14854E-04 2.36485E-04
 -1       163 1.26239E-08-3.16234E-04 2.38015E-04
 -1       164 9.58743E-06-3.14853E-04 2.36493E-04
 -1       165 2.44145E-08-6.17505E-04 3.02183E-04
 -1       166-2.35941E-06-9.61351E-04 3.36433E-04
 -1       167 3.88971E-08-9.65367E-04 3.37107E-04
 -1       168 2.43668E-06-9.61349E-04 3.36445E-04
 -1       169 5.28937E-08-1.32425E-03 3.37198E-04
 -1       170 6.54720E-06-1.69747E-03 3.15278E-04
 -1       171 6.73529E-08-1.68772E-03 3.15137E-04
 -1       172-6.41422E-06-1.69747E-03 3.15289E-04
 -1       173 7.79810E-08-1.98564E-03 2.33977E-04
 -1       174 1.55537E-05-2.18587E-03 1.11204E-04
 -1       175 8.87239E-08-2.21676E-03 1.11211E-04
 -1       176-1.53797E-05-2.18586E-03 1.11205E-04
 -1       177 8.80747E-08-2.21436E-03 8.17065E-06
 -1       178-4.53689E-07-2.39134E-03 2.83761E-05
 -1       179 9.01326E-08-2.27328E-03 3.88528E-05
 -1       180 6.21370E-07-2.39133E-03 2.83713E-05
 -1       181 7.23939E-08-2.19367E-03-4.31950E-05
 -1       182 5.93014E-06-1.80122E-03-2.76744E-04
 -1       183 8.22650E-08-2.27308E-03-2.88734E-04
 -1       184-5.80225E-06-1.80124E-03-2.76810E-04
 -1       190-6.25233E-08-7.47376E-05-1.45439E-07
 -1       191 9.91059E-06-2.96140E-04 1.09405E-04
 -1       192-7.10271E-08-2.99210E-04-2.61043E-07
 -1       193-9.95626E-06-2.96128E-04-1.10027E-04
 -1       194 3.78096E-08-6.00240E-04-5.10974E-07
 -1       195 1.93625E-06-9.60871E-04 1.63158E-04
 -1       196-1.38768E-08-9.58620E-04-6.75045E-07
 -1       197-1.97124E-06-9.60714E-04-1.64393E-04
 -1       198-1.05080E-07-1.33318E-03-8.50236E-07
 -1       199-4.97050E-06-1.68774E-03 1.43975E-04
 -1       200-4.46789E-07-1.68777E-03-4.71964E-07
 -1       201 5.01313E-06-1.68714E-03-1.45843E-04
 -1       202 8.93581E-07-2.02099E-03-1.17733E-06
 -1       203-2.16639E-05-2.24387E-03 6.38855E-05
 -1       204 1.29630E-06-2.21228E-03-2.31660E-06
 -1       205 2.20235E-05-2.24165E-03-6.68161E-05
 -1       206-2.42519E-06-2.26732E-03-2.22778E-06
 -1       207 2.56624E-05-2.14654E-03-6.50670E-06
 -1       208-7.80370E-06-2.15739E-03-2.41410E-07
 -1       209-2.51082E-05-2.15273E-03 2.03391E-06
 -1       210 1.18052E-05-2.31077E-03 1.04311E-06
 -1       211-1.26581E-04-2.38693E-03-1.32020E-04
 -1       212 1.12749E-05-2.02388E-03-1.99233E-06
 -1       213 1.25999E-04-2.36395E-03 1.27545E-04
 -1       219 3.48002E-09-9.09607E-05-1.34077E-07
 -1       220 1.15056E-08-3.08018E-04-1.13550E-04
 -1       221-2.69186E-08-3.09959E-04-3.36495E-07
 -1       222 1.20380E-08-3.10364E-04-3.56777E-07
 -1       223 5.04757E-08-3.09960E-04-3.45044E-07
 -1       224 1.25070E-08-3.07889E-04 1.12898E-04
 -1       225 2.30180E-08-6.07907E-04-4.80379E-07
 -1       226 3.59108E-08-9.63991E-04-1.66975E-04
 -1       227 1.55543E-09-9.57232E-04-6.38713E-07
 -1       228 3.69178E-08-9.59476E-04-7.92579E-07
 -1       229 7.14716E-08-9.57234E-04-6.50794E-07
 -1       230 3.79103E-08-9.63834E-04 1.65548E-04
 -1       231 4.98904E-08-1.33275E-03-7.01603E-07
 -1       232 6.28116E-08-1.68058E-03-1.49335E-04
 -1       233-1.40053E-07-1.68963E-03-1.18571E-06
 -1       234 6.41440E-08-1.67915E-03-1.31612E-06
 -1       235 2.65770E-07-1.68963E-03-1.19651E-06
 -1       236 6.56627E-08-1.67895E-03 1.47247E-04
 -1       237 7.32956E-08-2.00602E-03-8.69649E-07
 -1       238 8.36435E-08-2.23458E-03-6.61548E-05
 -1       239 6.22790E-07-2.16508E-03-1.35408E-06
 -1       240 8.45434E-08-2.18826E-03-1.87326E-06
 -1       241-4.59543E-07-2.16508E-03-1.35570E-06
 -1       242 8.65475E-08-2.23099E-03 6.27931E-05
 -1       243 8.14463E-08-2.26971E-03-2.01941E-06
 -1       244 8.42678E-08-2.14088E-03-3.55716E-06
 -1       245-3.01074E-06-2.27973E-03-2.45540E-06
 -1       246 8.58598E-08-2.16743E-03-1.84317E-06
 -1       247 3.16462E-06-2.27974E-03-2.45281E-06
 -1       248 8.73305E-08-2.13301E-03 7.23701E-07
 -1       249 6.49633E-08-2.26061E-03-1.24488E-06
 -1       250 8.59318E-08-2.39559E-03 1.25221E-04
 -1       251 2.79181E-06-1.51617E-03-9.72149E-07
 -1       252 8.33311E-08-1.92006E-03-1.38595E-06
 -1       253-2.66602E-06-1.51616E-03-9.29797E-07
 -1       254 8.59584E-08-2.42680E-03-1.32741E-04
 -3
    1PSTEP                         2           2           1          
  100CL  102 2.00000E-02         201                     1    2           1
 -4  DISP        4    1
 -5  D1          1    2    1    0
 -5  D2          1    2    2    0
 -5  D3          1    2    3    0
 -5  ALL         1    2    0    0    1ALL
 -1         1 0.00000E+00 0.00000E+00 0.00000E+00
 -1         2 0.00000E+00 0.00000E+00 0.00000E+00
 -1         3 0.00000E+00 0.00000E+00 0.00000E+00
 -1         4 0.00000E+00 0.00000E+00 0.00000E+00
 -1         9 0.00000E+00 0.00000E+00 0.00000E+00
 -1        10 0.00000E+00 0.00000E+00 0.00000E+00
 -1        11 0.00000E+00 0.00000E+00 0.00000E+00
 -1        12 0.00000E+00 0.00000E+00 0.00000E+00
 -1        13 0.00000E+00 0.00000E+00 0.00000E+00
 -1        14 0.00000E+00 0.00000E+00 0.00000E+00
 -1        15 0.00000E+00 0.00000E+00 0.00000E+00
 -1        16 0.00000E+00 0.00000E+00 0.00000E+00
 -1        17 0.00000E+00 0.00000E+00 0.00000E+00
 -1        18 0.00000E+00 0.00000E+00 0.00000E+00
 -1        19 0.00000E+00 0.00000E+00 0.00000E+00
 -1        20 0.00000E+00 0.00000E+00 0.00000E+00
 -1        33-3.19827E-05 7.91417E-05 1.02967E-04
 -1        34-1.54831E-05 2.44726E-04 1.87669E-04
 -1        35-1.27504E-05 4.92367E-04 2.42628E-04
 -1        36-4.52521E-06 7.74046E-04 2.69965E-04
 -1        37 4.27094E-06 1.07136E-03 2.71749E-04
 -1        38 1.34593E-05 1.36706E-03 2.50216E-04
 -1        39 2.07369E-05 1.60821E-03 1.85079E-04
 -1        40 1.40550E-05 1.78281E-03 9.25124E-05
 -1        41 3.47729E-05 1.81622E-03 2.08149E-05
 -1        42 4.46311E-05 1.87034E-03 1.11089E-05
 -1        43-3.87019E-05 1.69749E-03-7.89639E-05
 -1        44-1.52005E-04 1.60641E-03-2.33708E-04
 -1        51 1.51975E-04 1.60626E-03-2.33582E-04
 -1        52 3.86907E-05 1.69744E-03-7.89115E-05
 -1        53-4.46611E-05 1.87022E-03 1.11073E-05
 -1        54-3.48210E-05 1.81617E-03 2.08137E-05
 -1        55-1.41174E-05 1.78275E-03 9.25080E-05
 -1        56-2.07887E-05 1.60817E-03 1.85071E-04
 -1        57-1.35060E-05 1.36701E-03 2.50200E-04
 -1        58-4.30519E-06 1.07133E-03 2.71732E-04
 -1        59 4.50108E-06 7.74017E-04 2.69948E-04
 -1        60 1.27389E-05 4.92347E-04 2.42613E-04
 -1        61 1.54799E-05 2.44712E-04 1.87656E-04
 -1        62 3.19836E-05 7.91338E-05 1.02961E-04
 -1        63 3.19695E-05 7.91319E-05-1.02941E-04
 -1        64 1.54637E-05 2.44725E-04-1.87615E-04
 -1        65 1.27120E-05 4.92356E-04-2.42553E-04
 -1        66 4.48169E-06 7.74065E-04-2.69867E-04
 -1        67-4.36359E-06 1.07134E-03-2.71634E-04
 -1        68-1.35618E-05 1.36712E-03-2.50063E-04
 -1        69-2.08151E-05 1.60814E-03-1.84921E-04
 -1        70-1.40988E-05 1.78304E-03-9.23454E-05
 -1        71-3.50488E-05 1.81608E-03-2.06284E-05
 -1        72-4.48792E-05 1.87021E-03-1.08113E-05
 -1        73 3.90886E-05 1.69751E-03 7.93356E-05
 -1        74 1.53719E-04 1.60736E-03 2.33886E-04
 -1        78-3.19805E-05 7.91281E-05-1.02948E-04