    1C
    1UUSER                                                              
    1UDATE              12.july.2018                                    
    1UTIME              16:07:12                                        
    1UHOST                                                              
    1UPGM               CalculiX                                        
    1UVERSION           Version 2.13                             
    1UCOMPILETIME       jue jun 14 00:40:39 CEST 2018                    
    1UDIR                                                               
    1UDBN                                                               
    1UMAT    1EL                                                        
    2C                            81                                     1
 -1         5 0.00000E+00 0.00000E+00 8.00000E+00
 -1         6 1.00000E+00 0.00000E+00 8.00000E+00
 -1         7 1.00000E+00 1.00000E+00 8.00000E+00
 -1         8 0.00000E+00 1.00000E+00 8.00000E+00
 -1        21 2.50000E-01 0.00000E+00 8.00000E+00
 -1        22 5.00000E-01 0.00000E+00 8.00000E+00
 -1        23 7.50000E-01 0.00000E+00 8.00000E+00
 -1        24 1.00000E+00 2.50000E-01 8.00000E+00
 -1        25 1.00000E+00 5.00000E-01 8.00000E+00
 -1        26 1.00000E+00 7.50000E-01 8.00000E+00
 -1        27 7.50000E-01 1.00000E+00 8.00000E+00
 -1        28 5.00000E-01 1.00000E+00 8.00000E+00
 -1        29 2.50000E-01 1.00000E+00 8.00000E+00
 -1        30 0.00000E+00 7.50000E-01 8.00000E+00
 -1        31 0.00000E+00 5.00000E-01 8.00000E+00
 -1        32 0.00000E+00 2.50000E-01 8.00000E+00
 -1        44 1.00000E+00 0.00000E+00 6.00000E+00
 -1        45 1.00000E+00 0.00000E+00 6.50000E+00
 -1        46 1.00000E+00 0.00000E+00 7.00000E+00
 -1        47 1.00000E+00 0.00000E+00 7.50000E+00
 -1        48 0.00000E+00 0.00000E+00 7.50000E+00
 -1        49 0.00000E+00 0.00000E+00 7.00000E+00
 -1        50 0.00000E+00 0.00000E+00 6.50000E+00
 -1        51 0.00000E+00 0.00000E+00 6.00000E+00
 -1        74 1.00000E+00 1.00000E+00 6.00000E+00
 -1        75 1.00000E+00 1.00000E+00 6.50000E+00
 -1        76 1.00000E+00 1.00000E+00 7.00000E+00
 -1        77 1.00000E+00 1.00000E+00 7.50000E+00
 -1        89 0.00000E+00 1.00000E+00 6.00000E+00
 -1        90 0.00000E+00 1.00000E+00 6.50000E+00
 -1        91 0.00000E+00 1.00000E+00 7.00000E+00
 -1        92 0.00000E+00 1.00000E+00 7.50000E+00
 -1        98 5.00000E-01 2.50000E-01 8.00000E+00
 -1        99 2.50000E-01 5.00000E-01 8.00000E+00
 -1       100 5.00000E-01 5.00000E-01 8.00000E+00
 -1       101 7.50000E-01 5.00000E-01 8.00000E+00
 -1       102 5.00000E-01 7.50000E-01 8.00000E+00
 -1       124 2.50000E-01 0.00000E+00 6.00000E+00
 -1       125 5.00000E-01 0.00000E+00 6.00000E+00
 -1       126 7.50000E-01 0.00000E+00 6.00000E+00
 -1       127 5.00000E-01 0.00000E+00 6.50000E+00
 -1       128 2.50000E-01 0.00000E+00 7.00000E+00
 -1       129 5.00000E-01 0.00000E+00 7.00000E+00
 -1       130 7.50000E-01 0.00000E+00 7.00000E+00
 -1       131 5.00000E-01 0.00000E+00 7.50000E+00
 -1       153 1.00000E+00 2.50000E-01 6.00000E+00
 -1       154 1.00000E+00 5.00000E-01 6.00000E+00
 -1       155 1.00000E+00 7.50000E-01 6.00000E+00
 -1       156 1.00000E+00 5.00000E-01 6.50000E+00
 -1       157 1.00000E+00 2.50000E-01 7.00000E+00
 -1       158 1.00000E+00 5.00000E-01 7.00000E+00
 -1       159 1.00000E+00 7.50000E-01 7.00000E+00
 -1       160 1.00000E+00 5.00000E-01 7.50000E+00
 -1       182 7.50000E-01 1.00000E+00 6.00000E+00
 -1       183 5.00000E-01 1.00000E+00 6.00000E+00
 -1       184 2.50000E-01 1.00000E+00 6.00000E+00
 -1       185 5.00000E-01 1.00000E+00 6.50000E+00
 -1       186 7.50000E-01 1.00000E+00 7.00000E+00
 -1       187 5.00000E-01 1.00000E+00 7.00000E+00
 -1       188 2.50000E-01 1.00000E+00 7.00000E+00
 -1       189 5.00000E-01 1.00000E+00 7.50000E+00
 -1       211 0.00000E+00 7.50000E-01 6.00000E+00
 -1       212 0.00000E+00 5.00000E-01 6.00000E+00
 -1       213 0.00000E+00 2.50000E-01 6.00000E+00
 -1       214 0.00000E+00 5.00000E-01 6.50000E+00
 -1       215 0.00000E+00 7.50000E-01 7.00000E+00
 -1       216 0.00000E+00 5.00000E-01 7.00000E+00
 -1       217 0.00000E+00 2.50000E-01 7.00000E+00
 -1       218 0.00000E+00 5.00000E-01 7.50000E+00
 -1       250 5.00000E-01 2.50000E-01 6.00000E+00
 -1       251 2.50000E-01 5.00000E-01 6.00000E+00
 -1       252 5.00000E-01 5.00000E-01 6.00000E+00
 -1       253 7.50000E-01 5.00000E-01 6.00000E+00
 -1       254 5.00000E-01 7.50000E-01 6.00000E+00
 -1       255 5.00000E-01 5.00000E-01 6.50000E+00
 -1       256 5.00000E-01 2.50000E-01 7.00000E+00
 -1       257 2.50000E-01 5.00000E-01 7.00000E+00
 -1       258 5.00000E-01 5.00000E-01 7.00000E+00
 -1       259 7.50000E-01 5.00000E-01 7.00000E+00
 -1       260 5.00000E-01 7.50000E-01 7.00000E+00
 -1       261 5.00000E-01 5.00000E-01 7.50000E+00
 -3
    3C                             8                                     1
 -1        25    4    0    1
 -2        51       125       252       212        49       129       258       216       124       250
 -2       251       213        50       127       255       214       128       256       257       217
 -1        26    4    0    1
 -2       125        44       154       252       129        46       158       258       126       153
 -2       253       250       127        45       156       255       130       157       259       256
 -1        27    4    0    1
 -2       212       252       183        89       216       258       187        91       251       254
 -2       184       211       214       255       185        90       257       260       188       215
 -1        28    4    0    1
 -2       252       154        74       183       258       158        76       187       253       155
 -2       182       254       255       156        75       185       259       159       186       260
 -1        29    4    0    1
 -2        49       129       258       216         5        22       100        31       128       256
 -2       257       217        48       131       261       218        21        98        99        32
 -1        30    4    0    1
 -2       129        46       158       258        22         6        25       100       130       157
 -2       259       256       131        47       160       261        23        24       101        98
 -1        31    4    0    1
 -2       216       258       187        91        31       100        28         8       257       260
 -2       188       215       218       261       189        92        99       102        29        30
 -1        32    4    0    1
 -2       258       158        76       187       100        25         7        28       259       159
 -2       186       260       261       160        77       189       101        26        27       102
 -3
    1PSTEP                         1           1           1          
  100CL  101 2.00000E-02          81                     1    1           1
 -4  DISP        4    1
 -5  D1          1    2    1    0
 -5  D2          1    2    2    0
 -5  D3          1    2    3    0
 -5  ALL         1    2    0    0    1ALL
 -1         5 0.00000E+00 0.00000E+00 0.00000E+00
 -1         6 0.00000E+00 0.00000E+00 0.00000E+00
 -1         7 0.00000E+00 0.00000E+00 0.00000E+00
 -1         8 0.00000E+00 0.00000E+00 0.00000E+00
 -1        21 0.00000E+00 0.00000E+00 0.00000E+00
 -1        22 0.00000E+00 0.00000E+00 0.00000E+00
 -1        23 0.00000E+00 0.00000E+00 0.00000E+00
 -1        24 0.00000E+00 0.00000E+00 0.00000E+00
 -1        25 0.00000E+00 0.00000E+00 0.00000E+00
 -1        26 0.00000E+00 0.00000E+00 0.00000E+00
 -1        27 0.00000E+00 0.00000E+00 0.00000E+00
 -1        28 0.00000E+00 0.00000E+00 0.00000E+00
 -1        29 0.00000E+00 0.00000E+00 0.00000E+00
 -1        30 0.00000E+00 0.00000E+00 0.00000E+00
 -1        31 0.00000E+00 0.00000E+00 0.00000E+00
 -1        32 0.00000E+00 0.00000E+00 0.00000E+00
 -1        44 1.46855E-04-1.99828E-03 2.88068E-04
 -1        45 4.41053E-05-1.54648E-03 4.58590E-04
 -1        46-5.08146E-05-1.13867E-03 5.46027E-04
 -1        47 7.07554E-05-4.52316E-04 3.49615E-04
 -1        48-7.07571E-05-4.52317E-04 3.49620E-04
 -1        49 5.08231E-05-1.13865E-03 5.46032E-04
 -1        50-4.41140E-05-1.54649E-03 4.58595E-04
 -1        51-1.46843E-04-1.99826E-03 2.88053E-04
 -1        74-1.27847E-04-2.08151E-03-2.93843E-04
 -1        75-2.50063E-05-1.58166E-03-4.59362E-04
 -1        76 3.82942E-05-1.12189E-03-5.46537E-04
 -1        77-7.70714E-05-4.39275E-04-3.51089E-04
 -1        89 1.27855E-04-2.08152E-03-2.93867E-04
 -1        90 2.50129E-05-1.58167E-03-4.59373E-04
 -1        91-3.82978E-05-1.12188E-03-5.46540E-04
 -1        92 7.70716E-05-4.39276E-04-3.51093E-04
 -1        98 0.00000E+00 0.00000E+00 0.00000E+00
 -1        99 0.00000E+00 0.00000E+00 0.00000E+00
 -1       100 0.00000E+00 0.00000E+00 0.00000E+00
 -1       101 0.00000E+00 0.00000E+00 0.00000E+00
 -1       102 0.00000E+00 0.00000E+00 0.00000E+00
 -1       124 4.65189E-05-1.83000E-03 2.69391E-04
 -1       125-1.80514E-08-2.21979E-03 2.85906E-04
 -1       126-4.65314E-05-1.83001E-03 2.69378E-04
 -1       127 5.30453E-09-1.61660E-03 5.35459E-04
 -1       128-5.10047E-06-1.19613E-03 5.76558E-04
 -1       129-3.59239E-09-1.10154E-03 5.82386E-04
 -1       130 5.10125E-06-1.19613E-03 5.76559E-04
 -1       131 5.60455E-10-4.65212E-04 3.42996E-04
 -1       153-1.15363E-04-2.33375E-03 1.24772E-04
 -1       154-1.31588E-05-1.94122E-03-1.73739E-06
 -1       155 1.16693E-04-2.35348E-03-1.29594E-04
 -1       156-1.06093E-05-1.75716E-03-6.15707E-06
 -1       157 1.91710E-05-9.66718E-04 2.33042E-04
 -1       158 7.87230E-06-9.83335E-04-2.82256E-06
 -1       159-1.71495E-05-9.64718E-04-2.35203E-04
 -1       160 3.70156E-06-3.88555E-04 5.17163E-07
 -1       182 3.94591E-05-1.79536E-03-2.74534E-04
 -1       183 1.85402E-08-2.28794E-03-2.89397E-04
 -1       184-3.94389E-05-1.79537E-03-2.74562E-04
 -1       185-5.69003E-09-1.64100E-03-5.32695E-04
 -1       186-6.95860E-06-1.21569E-03-5.80210E-04
 -1       187 4.52424E-09-1.10479E-03-5.85358E-04
 -1       188 6.96172E-06-1.21569E-03-5.80209E-04
 -1       189-6.25956E-10-4.63959E-04-3.44259E-04
 -1       211-1.16692E-04-2.35350E-03-1.29614E-04
 -1       212 1.31440E-05-1.94126E-03-1.72277E-06
 -1       213 1.15356E-04-2.33376E-03 1.24797E-04
 -1       214 1.06121E-05-1.75715E-03-6.15535E-06
 -1       215 1.71457E-05-9.64722E-04-2.35203E-04
 -1       216-7.87528E-06-9.83345E-04-2.82317E-06
 -1       217-1.91672E-05-9.66717E-04 2.33039E-04
 -1       218-3.70092E-06-3.88554E-04 5.17496E-07
 -1       250-1.01741E-08-2.41615E-03 1.26899E-04
 -1       251 3.53228E-06-1.51029E-03 1.37791E-07
 -1       252-4.22549E-11-1.97212E-03 7.86289E-07
 -1       253-3.53818E-06-1.51026E-03 1.35644E-07
 -1       254 1.16223E-08-2.44870E-03-1.35827E-04
 -1       255-6.84315E-10-1.67401E-03-2.09679E-06
 -1       256-1.36375E-09-9.85810E-04 2.54217E-04
 -1       257-3.66340E-06-1.12567E-03-1.34743E-06
 -1       258 4.60577E-10-1.04131E-03-1.61282E-06
 -1       259 3.66210E-06-1.12566E-03-1.34837E-06
 -1       260 1.89378E-09-9.87208E-04-2.56103E-04
 -1       261 1.29309E-10-4.34434E-04-3.30260E-07
 -3
    1PSTEP                         2           2           1          
  100CL  102 4.00000E-02          81                     1    2           1
 -4  DISP        4    1
 -5  D1          1    2    1    0
 -5  D2          1    2    2    0
 -5  D3          1    2    3    0
 -5  ALL         1    2    0    0    1ALL
 -1         5 0.00000E+00 0.00000E+00 0.00000E+00
 -1         6 0.00000E+00 0.00000E+00 0.00000E+00
 -1         7 0.00000E+00 0.00000E+00 0.00000E+00
 -1         8 0.00000E+00 0.00000E+00 0.00000E+00
 -1        21 0.00000E+00 0.00000E+00 0.00000E+00
 -1        22 0.00000E+00 0.00000E+00 0.00000E+00
 -1        23 0.00000E+00 0.00000E+00 0.00000E+00
 -1        24 0.00000E+00 0.00000E+00 0.00000E+00
 -1        25 0.00000E+00 0.00000E+00 0.00000E+00
 -1        26 0.00000E+00 0.00000E+00 0.00000E+00
 -1        27 0.00000E+00 0.00000E+00 0.00000E+00
 -1        28 0.00000E+00 0.00000E+00 0.00000E+00
 -1        29 0.00000E+00 0.00000E+00 0.00000E+00
 -1        30 0.00000E+00 0.00000E+00 0.00000E+00
 -1        31 0.00000E+00 0.00000E+00 0.00000E+00
 -1        32 0.00000E+00 0.00000E+00 0.00000E+00
 -1        44-1.21365E-04 1.61208E-03-2.31785E-04
 -1        45-3.11458E-05 1.24305E-03-3.77435E-04
 -1        46 3.85825E-05 9.12650E-04-4.34022E-04
 -1        47-5.49319E-05 3.68082E-04-2.82043E-04
 -1        48 5.48976E-05 3.68058E-04-2.81979E-04
 -1        49-3.87423E-05 9.12613E-04-4.33881E-04
 -1        50 3.08276E-05 1.24305E-03-3.77186E-04
 -1        51 1.20673E-04 1.61195E-03-2.31363E-04
 -1        74 1.07654E-04 1.66118E-03 2.32207E-04
 -1        75 1.77019E-05 1.26542E-03 3.76963E-04
 -1        76-3.12299E-05 8.98927E-04 4.31321E-04
 -1        77 5.83680E-05 3.60995E-04 2.81672E-04
 -1        89-1.08380E-04 1.66128E-03 2.32630E-04
 -1        90-1.80092E-05 1.26543E-03 3.77212E-04
 -1        91 3.10656E-05 8.98959E-04 4.31462E-04
 -1        92-5.84012E-05 3.61020E-04 2.81736E-04
 -1        98 0.00000E+00 0.00000E+00 0.00000E+00
 -1        99 0.00000E+00 0.00000E+00 0.00000E+00
 -1       100 0.00000E+00 0.00000E+00 0.00000E+00
 -1       101 0.00000E+00 0.00000E+00 0.00000E+00
 -1       102 0.00000E+00 0.00000E+00 0.00000E+00
 -1       124-5.40310E-06 1.47139E-03-2.18232E-04
 -1       125-2.83087E-07 1.74494E-03-2.27150E-04
 -1       126 4.78618E-06 1.47145E-03-2.18395E-04
 -1       127-1.76121E-07 1.29005E-03-4.11929E-04
 -1       128-3.33207E-06 9.57633E-04-4.60657E-04
 -1       129-5.76130E-08 8.89384E-04-4.67954E-04
 -1       130 3.19675E-06 9.57653E-04-4.60738E-04
 -1       131-1.13320E-08 3.75932E-04-2.75939E-04
 -1       153 1.00094E-04 1.89491E-03-1.03274E-04
 -1       154 7.10907E-06 1.62983E-03 1.55172E-06
 -1       155-1.00926E-04 1.90706E-03 1.01603E-04
 -1       156 6.59376E-06 1.38741E-03 2.77708E-06
 -1       157-1.84785E-05 7.91592E-04-1.85909E-04
 -1       158-4.39306E-06 8.13002E-04 7.21628E-07
 -1       159 1.82324E-05 7.88083E-04 1.85602E-04
 -1       160-1.83552E-06 3.13366E-04-2.05842E-07
 -1       182-2.80131E-06 1.44989E-03 2.16931E-04
 -1       183-2.78850E-07 1.78534E-03 2.31081E-04
 -1       184 2.17352E-06 1.44993E-03 2.17075E-04
 -1       185-1.80599E-07 1.30130E-03 4.10552E-04
 -1       186-1.82542E-06 9.63240E-04 4.61052E-04
 -1       187-5.20795E-08 8.82059E-04 4.66910E-04
 -1       188 1.69315E-06 9.63259E-04 4.61137E-04
 -1       189-1.13094E-08 3.72699E-04 2.75138E-04
 -1       211 1.00122E-04 1.90710E-03 1.02004E-04
 -1       212-7.95428E-06 1.62983E-03 1.98662E-06
 -1       213-1.00875E-04 1.89485E-03-1.02891E-04
 -1       214-6.89028E-06 1.38741E-03 3.03435E-06
 -1       215-1.84143E-05 7.88102E-04 1.85749E-04
 -1       216 4.19449E-06 8.13007E-04 8.61429E-07
 -1       217 1.82980E-05 7.91576E-04-1.85757E-04
 -1       218 1.79353E-06 3.13366E-04-1.56623E-07
 -1       250-2.82098E-07 1.88252E-03-1.00032E-04
 -1       251-2.93755E-06 1.21588E-03 1.55875E-06
 -1       252-2.75885E-07 1.51369E-03 2.59758E-06
 -1       253 2.25609E-06 1.21587E-03 1.47054E-06
 -1       254-2.78274E-07 1.90096E-03 1.04498E-04
 -1       255-1.96754E-07 1.35908E-03 6.22087E-07
 -1       256-5.41113E-08 7.86133E-04-2.05025E-04
 -1       257 1.75505E-06 9.05119E-04 2.41022E-08
 -1       258-4.82083E-08 8.17086E-04 9.57148E-08
 -1       259-1.90045E-06 9.05117E-04-7.39863E-08
 -1       260-5.17352E-08 7.82763E-04 2.05159E-04
 -1       261-1.93895E-08 3.50075E-04 2.75251E-07
 -3
    1PSTEP                         3           3           1          
  100CL  103 6.00000E-02          81                     1    3           1
 -4  DISP        4    1
 -5  D1          1    2    1    0
 -5  D2          1    2    2    0
 -5  D3          1    2    3    0
 -5  ALL         1    2    0    0    1ALL
 -1         5 0.00000E+00 0.00000E+00 0.00000E+00
 -1         6 0.00000E+00 0.00000E+00 0.00000E+00
 -1         7 0.00000E+00 0.00000E+00 0.00000E+00
 -1         8 0.00000E+00 0.00000E+00 0.00000E+00
 -1        21 0.00000E+00 0.00000E+00 0.00000E+00
 -1        22 0.00000E+00 0.00000E+00 0.00000E+00
 -1        23 0.00000E+00 0.00000E+00 0.00000E+00
 -1        24 0.00000E+00 0.00000E+00 0.00000E+00
 -1        25 0.00000E+00 0.00000E+00 0.00000E+00
 -1        26 0.00000E+00 0.00000E+00 0.00000E+00
 -1        27 0.00000E+00 0.00000E+00 0.00000E+00
 -1        28 0.00000E+00 0.00000E+00 0.00000E+00
 -1        29 0.00000E+00 0.00000E+00 0.00000E+00
 -1        30 0.00000E+00 0.00000E+00 0.00000E+00
 -1        31 0.00000E+00 0.00000E+00 0.00000E+00
 -1        32 0.00000E+00 0.00000E+00 0.00000E+00
 -1        44 1.04296E-04-1.28506E-03 1.85027E-04
 -1        45 2.61465E-05-9.93963E-04 3.00348E-04
 -1        46-3.08845E-05-7.18433E-04 3.43336E-04
 -1        47 4.38670E-05-2.90675E-04 2.23780E-04
 -1        48-4.38678E-05-2.90674E-04 2.23779E-04
 -1        49 3.08878E-05-7.18437E-04 3.43334E-04
 -1        50-2.61520E-05-9.93954E-04 3.00345E-04
 -1        51-1.04264E-04-1.28508E-03 1.85022E-04
 -1        74-8.97714E-05-1.33234E-03-1.84771E-04
 -1        75-1.23189E-05-1.01516E-03-2.98179E-04
 -1        76 2.27442E-05-7.05730E-04-3.42105E-04
 -1        77-4.72843E-05-2.83945E-04-2.23987E-04
 -1        89 8.97549E-05-1.33237E-03-1.84778E-04
 -1        90 1.23275E-05-1.01515E-03-2.98182E-04
 -1        91-2.27457E-05-7.05735E-04-3.42105E-04
 -1        92 4.72849E-05-2.83944E-04-2.23986E-04
 -1        98 0.00000E+00 0.00000E+00 0.00000E+00
 -1        99 0.00000E+00 0.00000E+00 0.00000E+00
 -1       100 0.00000E+00 0.00000E+00 0.00000E+00
 -1       101 0.00000E+00 0.00000E+00 0.00000E+00
 -1       102 0.00000E+00 0.00000E+00 0.00000E+00
 -1       124-5.39505E-06-1.16906E-03 1.73978E-04
 -1       125 1.29493E-09-1.39460E-03 1.83045E-04
 -1       126 5.41089E-06-1.16904E-03 1.73966E-04
 -1       127 4.31940E-09-1.02484E-03 3.29910E-04
 -1       128 3.87996E-06-7.59860E-04 3.66436E-04
 -1       129-3.89838E-09-7.07552E-04 3.72774E-04
 -1       130-3.88203E-06-7.59859E-04 3.66440E-04
 -1       131-1.73099E-10-2.98106E-04 2.19154E-04
 -1       153-8.71093E-05-1.50085E-03 8.17434E-05
 -1       154-5.35594E-06-1.31389E-03 3.39428E-07
 -1       155 8.73665E-05-1.51389E-03-8.16933E-05
 -1       156-6.45576E-06-1.10889E-03-1.48665E-06
 -1       157 1.73521E-05-6.27307E-04 1.47941E-04
 -1       158 3.94429E-06-6.41164E-04-1.17126E-06
 -1       159-1.74209E-05-6.23753E-04-1.47865E-04
 -1       160 1.74278E-06-2.45916E-04-8.28038E-08
 -1       182-5.89330E-06-1.14805E-03-1.74005E-04
 -1       183 2.76042E-09-1.43058E-03-1.82312E-04
 -1       184 5.88905E-06-1.14807E-03-1.74020E-04
 -1       185-1.10559E-09-1.03528E-03-3.26404E-04
 -1       186 1.81612E-06-7.64776E-04-3.66730E-04
 -1       187 3.36970E-09-6.99682E-04-3.72346E-04
 -1       188-1.81373E-06-7.64778E-04-3.66727E-04
 -1       189 2.11188E-11-2.94715E-04-2.18645E-04
 -1       211-8.73702E-05-1.51390E-03-8.16839E-05
 -1       212 5.37319E-06-1.31388E-03 3.28570E-07
 -1       213 8.71391E-05-1.50085E-03 8.17192E-05
 -1       214 6.45521E-06-1.10890E-03-1.49048E-06
 -1       215 1.74225E-05-6.23751E-04-1.47870E-04
 -1       216-3.94112E-06-6.41155E-04-1.17189E-06
 -1       217-1.73496E-05-6.27305E-04 1.47944E-04
 -1       218-1.74307E-06-2.45916E-04-8.22759E-08
 -1       250-2.35063E-10-1.51829E-03 8.20851E-05
 -1       251 1.33786E-06-9.63684E-04 4.76414E-07
 -1       252 6.70955E-10-1.21264E-03 1.96388E-06
 -1       253-1.32929E-06-9.63692E-04 4.75102E-07
 -1       254 2.79153E-09-1.53194E-03-8.10047E-05
 -1       255 2.52478E-09-1.08096E-03-3.46559E-07
 -1       256-2.16544E-09-6.21394E-04 1.62985E-04
 -1       257-1.58025E-06-7.20507E-04 1.62798E-07
 -1       258-1.03475E-09-6.48461E-04-8.15667E-08
 -1       259 1.58083E-06-7.20511E-04 1.64650E-07
 -1       260 9.32251E-10-6.18360E-04-1.63070E-04
 -1       261 1.31375E-10-2.77557E-04-2.93454E-07
 -3
    1PSTEP                         4           4           1          
  100CL  104 8.00000E-02          81                     1    4           1
 -4  DISP        4    1
 -5  D1          1    2    1    0
 -5  D2          1    2    2    0
 -5  D3          1    2    3    0
 -5  ALL         1    2    0    0    1ALL
 -1         5 0.00000E+00 0.00000E+00 0.00000E+00
 -1         6 0.00000E+00 0.00000E+00 0.00000E+00
 -1         7 0.00000E+00 0.00000E+00 0.00000E+00
 -1         8 0.00000E+00 0.00000E+00 0.00000E+00
 -1        21 0.00000E+00 0.00000E+00 0.00000E+00
 -1        22 0.00000E+00 0.00000E+00 0.00000E+00
 -1        23 0.00000E+00 0.00000E+00 0.00000E+00
 -1        24 0.00000E+00 0.00000E+00 0.00000E+00
 -1        25 0.00000E+00 0.00000E+00 0.00000E+00
 -1        26 0.00000E+00 0.00000E+00 0.00000E+00
 -1        27 0.00000E+00 0.00000E+00 0.00000E+00
 -1        28 0.00000E+00 0.00000E+00 0.00000E+00
 -1        29 0.00000E+00 0.00000E+00 0.00000E+00
 -1        30 0.00000E+00 0.00000E+00 0.00000E+00
 -1        31 0.00000E+00 0.00000E+00 0.00000E+00
 -1        32 0.00000E+00 0.00000E+00 0.00000E+00
 -1        44-7.64004E-05 9.90713E-04-1.42632E-04
 -1        45-1.95214E-05 7.65270E-04-2.32127E-04
 -1        46 2.44777E-05 5.62103E-04-2.66429E-04
 -1        47-3.35943E-05 2.27124E-04-1.73900E-04
 -1        48 3.36487E-05 2.27126E-04-1.73944E-04
 -1        49-2.43755E-05 5.62142E-04-2.66526E-04
 -1        50 1.98541E-05 7.65198E-04-2.32206E-04
 -1        51 7.64092E-05 9.90857E-04-1.42598E-04
 -1        74 7.51894E-05 1.01051E-03 1.43157E-04
 -1        75 1.40860E-05 7.73905E-04 2.33683E-04
 -1        76-2.08784E-05 5.57208E-04 2.65997E-04
 -1        77 3.49450E-05 2.24290E-04 1.73681E-04
 -1        89-7.46698E-05 1.01104E-03 1.43254E-04
 -1        90-1.38798E-05 7.73729E-04 2.33579E-04
 -1        91 2.10092E-05 5.57294E-04 2.65874E-04
 -1        92-3.49017E-05 2.24261E-04 1.73601E-04
 -1        98 0.00000E+00 0.00000E+00 0.00000E+00
 -1        99 0.00000E+00 0.00000E+00 0.00000E+00
 -1       100 0.00000E+00 0.00000E+00 0.00000E+00
 -1       101 0.00000E+00 0.00000E+00 0.00000E+00
 -1       102 0.00000E+00 0.00000E+00 0.00000E+00
 -1       124-2.96418E-06 9.07098E-04-1.34639E-04
 -1       125 1.69967E-07 1.07582E-03-1.40980E-04
 -1       126 3.16157E-06 9.06982E-04-1.34510E-04
 -1       127 8.81636E-08 7.95458E-04-2.54265E-04
 -1       128-2.02989E-06 5.89270E-04-2.83721E-04
 -1       129 1.08455E-07 5.47235E-04-2.88367E-04
 -1       130 2.18477E-06 5.89258E-04-2.83709E-04
 -1       131 2.13988E-08 2.31294E-04-1.69745E-04
 -1       153 6.58160E-05 1.17010E-03-6.33884E-05
 -1       154 3.18941E-06 1.01383E-03 7.59131E-07
 -1       155-6.41954E-05 1.17687E-03 6.34701E-05
 -1       156 3.18215E-06 8.55101E-04 1.17894E-06
 -1       157-1.19471E-05 4.87953E-04-1.14111E-04
 -1       158-1.92073E-06 5.00999E-04 4.83081E-07
 -1       159 1.22267E-05 4.86330E-04 1.14394E-04
 -1       160-7.18665E-07 1.92311E-04 6.63178E-10
 -1       182 1.83786E-06 8.98601E-04 1.34422E-04
 -1       183 2.13008E-07 1.09097E-03 1.43404E-04
 -1       184-1.37569E-06 8.98886E-04 1.34524E-04
 -1       185 1.30029E-07 7.99854E-04 2.52499E-04
 -1       186-1.71870E-06 5.91374E-04 2.84261E-04
 -1       187 4.18208E-08 5.43801E-04 2.88141E-04
 -1       188 1.82610E-06 5.91413E-04 2.84187E-04
 -1       189 1.70404E-08 2.30003E-04 1.69612E-04
 -1       211 6.44789E-05 1.17701E-03 6.32595E-05
 -1       212-3.24490E-06 1.01365E-03 8.72055E-07
 -1       213-6.59041E-05 1.17009E-03-6.31641E-05
 -1       214-2.80657E-06 8.55213E-04 1.12054E-06
 -1       215-1.21477E-05 4.86316E-04 1.14343E-04
 -1       216 1.95843E-06 5.00876E-04 3.62360E-07
 -1       217 1.20306E-05 4.87910E-04-1.14249E-04
 -1       218 7.83033E-07 1.92315E-04-9.93451E-08
 -1       250 2.39993E-07 1.15902E-03-6.23920E-05
 -1       251-1.48497E-06 7.47747E-04 2.52712E-07
 -1       252 2.86077E-07 9.33764E-04 6.49570E-07
 -1       253 1.75812E-06 7.47873E-04 4.69860E-07
 -1       254 2.40552E-07 1.16498E-03 6.49841E-05
 -1       255 6.63016E-08 8.39477E-04 2.86781E-08
 -1       256 1.15720E-07 4.83310E-04-1.26618E-04
 -1       257 1.02735E-06 5.58149E-04 7.26756E-10
 -1       258 1.25735E-07 5.01192E-04-7.09620E-08
 -1       259-8.84083E-07 5.58202E-04-2.11299E-09
 -1       260 8.74160E-08 4.81938E-04 1.26467E-04
 -1       261 1.23574E-08 2.14992E-04 2.18283E-07
 -3
    1PSTEP                         5           5           1          
  100CL  105 1.00000E-01          81                     1    5           1
 -4  DISP        4    1
 -5  D1          1    2    1    0
 -5  D2          1    2    2    0
 -5  D3          1    2    3    0
 -5  ALL         1    2    0    0    1ALL
 -1         5 0.00000E+00 0.00000E+00 0.00000E+00
 -1         6 0.00000E+00 0.00000E+00 0.00000E+00
 -1         7 0.00000E+00 0.00000E+00 0.00000E+00
 -1         8 0.00000E+00 0.00000E+00 0.00000E+00
 -1        21 0.00000E+00 0.00000E+00 0.00000E+00
 -1        22 0.00000E+00 0.00000E+00 0.00000E+00
 -1        23 0.00000E+00 0.00000E+00 0.00000E+00
 -1        24 0.00000E+00 0.00000E+00 0.00000E+00
 -1        25 0.00000E+00 0.00000E+00 0.00000E+00
 -1        26 0.00000E+00 0.00000E+00 0.00000E+00
 -1        27 0.00000E+00 0.00000E+00 0.00000E+00
 -1        28 0.00000E+00 0.00000E+00 0.00000E+00
 -1        29 0.00000E+00 0.00000E+00 0.00000E+00
 -1        30 0.00000E+00 0.00000E+00 0.00000E+00
 -1        31 0.00000E+00 0.00000E+00 0.00000E+00
 -1        32 0.00000E+00 0.00000E+00 0.00000E+00
 -1        44 6.32748E-05-7.56044E-04 1.08169E-04
 -1        45 1.48285E-05-5.83670E-04 1.78290E-04
 -1        46-1.78454E-05-4.20512E-04 2.00405E-04
 -1        47 2.52089E-05-1.70985E-04 1.31369E-04
 -1        48-2.52516E-05-1.70983E-04 1.31409E-04
 -1        49 1.78181E-05-4.20546E-04 2.00473E-04
 -1        50-1.51165E-05-5.83583E-04 1.78346E-04
 -1        51-6.30718E-05-7.56296E-04 1.08131E-04
 -1        74-5.85327E-05-7.77297E-04-1.08240E-04
 -1        75-8.16937E-06-5.93412E-04-1.78293E-04
 -1        76 1.37726E-05-4.14965E-04-1.99995E-04
 -1        77-2.68776E-05-1.67853E-04-1.31365E-04
 -1        89 5.80198E-05-7.77763E-04-1.08280E-04
 -1        90 8.10871E-06-5.93269E-04-1.78235E-04
 -1        91-1.38923E-05-4.15024E-04-1.99926E-04
 -1        92 2.68575E-05-1.67831E-04-1.31324E-04
 -1        98 0.00000E+00 0.00000E+00 0.00000E+00
 -1        99 0.00000E+00 0.00000E+00 0.00000E+00
 -1       100 0.00000E+00 0.00000E+00 0.00000E+00
 -1       101 0.00000E+00 0.00000E+00 0.00000E+00
 -1       102 0.00000E+00 0.00000E+00 0.00000E+00
 -1       124-1.00157E-05-6.86817E-04 1.02253E-04
 -1       125-1.62501E-07-8.13136E-04 1.07360E-04
 -1       126 9.93189E-06-6.86626E-04 1.02034E-04
 -1       127-2.02900E-08-6.00388E-04 1.90899E-04
 -1       128 3.68123E-06-4.44875E-04 2.14905E-04
 -1       129-1.08088E-07-4.15444E-04 2.19287E-04
 -1       130-3.79890E-06-4.44868E-04 2.14925E-04
 -1       131-1.25992E-08-1.74485E-04 1.28289E-04
 -1       153-5.49942E-05-8.88104E-04 4.81859E-05
 -1       154-2.47554E-06-7.90421E-04 4.42257E-09
 -1       155 5.36856E-05-8.95056E-04-4.82650E-05
 -1       156-3.15982E-06-6.47199E-04-1.05877E-06
 -1       157 1.14231E-05-3.70158E-04 8.64015E-05
 -1       158 1.89735E-06-3.79837E-04-4.80873E-07
 -1       159-1.14641E-05-3.68373E-04-8.64106E-05
 -1       160 7.46753E-07-1.43575E-04-1.09003E-08
 -1       182-1.17192E-05-6.77013E-04-1.01970E-04
 -1       183-8.29914E-08-8.29091E-04-1.08200E-04
 -1       184 1.13944E-05-6.77293E-04-1.02154E-04
 -1       185-1.13545E-07-6.04926E-04-1.89041E-04
 -1       186 2.77843E-06-4.47091E-04-2.15231E-04
 -1       187 7.27488E-09-4.11788E-04-2.18912E-04
 -1       188-2.83224E-06-4.47113E-04-2.15160E-04
 -1       189-1.20144E-08-1.73105E-04-1.28076E-04
 -1       211-5.39649E-05-8.95218E-04-4.80774E-05
 -1       212 2.53146E-06-7.90337E-04-8.28999E-08
 -1       213 5.51852E-05-8.88180E-04 4.79662E-05
 -1       214 2.91828E-06-6.47294E-04-1.02527E-06
 -1       215 1.14000E-05-3.68348E-04-8.63951E-05
 -1       216-1.91882E-06-3.79720E-04-4.04163E-07
 -1       217-1.14594E-05-3.70118E-04 8.65082E-05
 -1       218-7.88767E-07-1.43575E-04 5.28075E-08
 -1       250-1.91830E-07-8.82880E-04 4.73215E-05
 -1       251 1.21767E-06-5.64490E-04 1.00607E-07
 -1       252-1.82112E-07-6.99252E-04-6.41482E-07
 -1       253-1.38274E-06-5.64568E-04-3.72474E-08
 -1       254-1.16354E-07-8.87997E-04-4.85425E-05
 -1       255-4.03981E-08-6.38883E-04-3.09824E-07
 -1       256-9.12084E-08-3.61955E-04 9.59350E-05
 -1       257-9.70696E-07-4.23005E-04 1.51585E-08
 -1       258-8.15176E-08-3.75269E-04 7.05675E-08
 -1       259 8.79470E-07-4.23055E-04 1.87528E-08
 -1       260-4.17315E-08-3.60763E-04-9.58998E-05
 -1       261-8.15620E-09-1.62407E-04-1.26698E-07
 -3
    1PSTEP                         6           6           1          
  100CL  106 1.20000E-01          81                     1    6           1
 -4  DISP        4    1
 -5  D1          1    2    1    0
 -5  D2          1    2    2    0
 -5  D3          1    2    3    0
 -5  ALL         1    2    0    0    1ALL
 -1         5 0.00000E+00 0.00000E+00 0.00000E+00
 -1         6 0.00000E+00 0.00000E+00 0.00000E+00
 -1         7 0.00000E+00 0.00000E+00 0.00000E+00
 -1         8 0.00000E+00 0.00000E+00 0.00000E+00
 -1        21 0.00000E+00 0.00000E+00 0.00000E+00
 -1        22 0.00000E+00 0.00000E+00 0.00000E+00
 -1        23 0.00000E+00 0.00000E+00 0.00000E+00
 -1        24 0.00000E+00 0.00000E+00 0.00000E+00
 -1        25 0.00000E+00 0.00000E+00 0.00000E+00
 -1        26 0.00000E+00 0.00000E+00 0.00000E+00
 -1        27 0.00000E+00 0.00000E+00 0.00000E+00
 -1        28 0.00000E+00 0.00000E+00 0.00000E+00
 -1        29 0.00000E+00 0.00000E+00 0.00000E+00
 -1        30 0.00000E+00 0.00000E+00 0.00000E+00
 -1        31 0.00000E+00 0.00000E+00 0.00000E+00
 -1        32 0.00000E+00 0.00000E+00 0.00000E+00
 -1        44-4.92168E-05 5.47162E-04-7.87963E-05
 -1        45-1.12239E-05 4.23369E-04-1.28755E-04
 -1        46 1.31497E-05 3.05099E-04-1.45280E-04
 -1        47-1.82994E-05 1.23934E-04-9.53570E-05