    1C
    1UUSER                                                              
    1UDATE              12.july.2018                                    
    1UTIME              16:08:24                                        
    1UHOST                                                              
    1UPGM               CalculiX                                        
    1UVERSION           Version 2.13                             
    1UCOMPILETIME       jue jun 14 00:40:39 CEST 2018                    
    1UDIR                                                               
    1UDBN                                                               
    1UMAT    1EL                                                        
    2C                            81                                     1
 -1         5 0.00000E+00 0.00000E+00 8.00000E+00
 -1         6 1.00000E+00 0.00000E+00 8.00000E+00
 -1         7 1.00000E+00 1.00000E+00 8.00000E+00
 -1         8 0.00000E+00 1.00000E+00 8.00000E+00
 -1        21 2.50000E-01 0.00000E+00 8.00000E+00
 -1        22 5.00000E-01 0.00000E+00 8.00000E+00
 -1        23 7.50000E-01 0.00000E+00 8.00000E+00
 -1        24 1.00000E+00 2.50000E-01 8.00000E+00
 -1        25 1.00000E+00 5.00000E-01 8.00000E+00
 -1        26 1.00000E+00 7.50000E-01 8.00000E+00
 -1        27 7.50000E-01 1.00000E+00 8.00000E+00
 -1        28 5.00000E-01 1.00000E+00 8.00000E+00
 -1        29 2.50000E-01 1.00000E+00 8.00000E+00
 -1        30 0.00000E+00 7.50000E-01 8.00000E+00
 -1        31 0.00000E+00 5.00000E-01 8.00000E+00
 -1        32 0.00000E+00 2.50000E-01 8.00000E+00
 -1        44 1.00000E+00 0.00000E+00 6.00000E+00
 -1        45 1.00000E+00 0.00000E+00 6.50000E+00
 -1        46 1.00000E+00 0.00000E+00 7.00000E+00
 -1        47 1.00000E+00 0.00000E+00 7.50000E+00
 -1        48 0.00000E+00 0.00000E+00 7.50000E+00
 -1        49 0.00000E+00 0.00000E+00 7.00000E+00
 -1        50 0.00000E+00 0.00000E+00 6.50000E+00
 -1        51 0.00000E+00 0.00000E+00 6.00000E+00
 -1        74 1.00000E+00 1.00000E+00 6.00000E+00
 -1        75 1.00000E+00 1.00000E+00 6.50000E+00
 -1        76 1.00000E+00 1.00000E+00 7.00000E+00
 -1        77 1.00000E+00 1.00000E+00 7.50000E+00
 -1        89 0.00000E+00 1.00000E+00 6.00000E+00
 -1        90 0.00000E+00 1.00000E+00 6.50000E+00
 -1        91 0.00000E+00 1.00000E+00 7.00000E+00
 -1        92 0.00000E+00 1.00000E+00 7.50000E+00
 -1        98 5.00000E-01 2.50000E-01 8.00000E+00
 -1        99 2.50000E-01 5.00000E-01 8.00000E+00
 -1       100 5.00000E-01 5.00000E-01 8.00000E+00
 -1       101 7.50000E-01 5.00000E-01 8.00000E+00
 -1       102 5.00000E-01 7.50000E-01 8.00000E+00
 -1       124 2.50000E-01 0.00000E+00 6.00000E+00
 -1       125 5.00000E-01 0.00000E+00 6.00000E+00
 -1       126 7.50000E-01 0.00000E+00 6.00000E+00
 -1       127 5.00000E-01 0.00000E+00 6.50000E+00
 -1       128 2.50000E-01 0.00000E+00 7.00000E+00
 -1       129 5.00000E-01 0.00000E+00 7.00000E+00
 -1       130 7.50000E-01 0.00000E+00 7.00000E+00
 -1       131 5.00000E-01 0.00000E+00 7.50000E+00
 -1       153 1.00000E+00 2.50000E-01 6.00000E+00
 -1       154 1.00000E+00 5.00000E-01 6.00000E+00
 -1       155 1.00000E+00 7.50000E-01 6.00000E+00
 -1       156 1.00000E+00 5.00000E-01 6.50000E+00
 -1       157 1.00000E+00 2.50000E-01 7.00000E+00
 -1       158 1.00000E+00 5.00000E-01 7.00000E+00
 -1       159 1.00000E+00 7.50000E-01 7.00000E+00
 -1       160 1.00000E+00 5.00000E-01 7.50000E+00
 -1       182 7.50000E-01 1.00000E+00 6.00000E+00
 -1       183 5.00000E-01 1.00000E+00 6.00000E+00
 -1       184 2.50000E-01 1.00000E+00 6.00000E+00
 -1       185 5.00000E-01 1.00000E+00 6.50000E+00
 -1       186 7.50000E-01 1.00000E+00 7.00000E+00
 -1       187 5.00000E-01 1.00000E+00 7.00000E+00
 -1       188 2.50000E-01 1.00000E+00 7.00000E+00
 -1       189 5.00000E-01 1.00000E+00 7.50000E+00
 -1       211 0.00000E+00 7.50000E-01 6.00000E+00
 -1       212 0.00000E+00 5.00000E-01 6.00000E+00
 -1       213 0.00000E+00 2.50000E-01 6.00000E+00
 -1       214 0.00000E+00 5.00000E-01 6.50000E+00
 -1       215 0.00000E+00 7.50000E-01 7.00000E+00
 -1       216 0.00000E+00 5.00000E-01 7.00000E+00
 -1       217 0.00000E+00 2.50000E-01 7.00000E+00
 -1       218 0.00000E+00 5.00000E-01 7.50000E+00
 -1       250 5.00000E-01 2.50000E-01 6.00000E+00
 -1       251 2.50000E-01 5.00000E-01 6.00000E+00
 -1       252 5.00000E-01 5.00000E-01 6.00000E+00
 -1       253 7.50000E-01 5.00000E-01 6.00000E+00
 -1       254 5.00000E-01 7.50000E-01 6.00000E+00
 -1       255 5.00000E-01 5.00000E-01 6.50000E+00
 -1       256 5.00000E-01 2.50000E-01 7.00000E+00
 -1       257 2.50000E-01 5.00000E-01 7.00000E+00
 -1       258 5.00000E-01 5.00000E-01 7.00000E+00
 -1       259 7.50000E-01 5.00000E-01 7.00000E+00
 -1       260 5.00000E-01 7.50000E-01 7.00000E+00
 -1       261 5.00000E-01 5.00000E-01 7.50000E+00
 -3
    3C                             8                                     1
 -1        25    4    0    1
 -2        51       125       252       212        49       129       258       216       124       250
 -2       251       213        50       127       255       214       128       256       257       217
 -1        26    4    0    1
 -2       125        44       154       252       129        46       158       258       126       153
 -2       253       250       127        45       156       255       130       157       259       256
 -1        27    4    0    1
 -2       212       252       183        89       216       258       187        91       251       254
 -2       184       211       214       255       185        90       257       260       188       215
 -1        28    4    0    1
 -2       252       154        74       183       258       158        76       187       253       155
 -2       182       254       255       156        75       185       259       159       186       260
 -1        29    4    0    1
 -2        49       129       258       216         5        22       100        31       128       256
 -2       257       217        48       131       261       218        21        98        99        32
 -1        30    4    0    1
 -2       129        46       158       258        22         6        25       100       130       157
 -2       259       256       131        47       160       261        23        24       101        98
 -1        31    4    0    1
 -2       216       258       187        91        31       100        28         8       257       260
 -2       188       215       218       261       189        92        99       102        29        30
 -1        32    4    0    1
 -2       258       158        76       187       100        25         7        28       259       159
 -2       186       260       261       160        77       189       101        26        27       102
 -3
    1PSTEP                         1           1           1          
  100CL  101 2.00000E-02          81                     1    1           1
 -4  DISP        4    1
 -5  D1          1    2    1    0
 -5  D2          1    2    2    0
 -5  D3          1    2    3    0
 -5  ALL         1    2    0    0    1ALL
 -1         5 0.00000E+00 0.00000E+00 0.00000E+00
 -1         6 0.00000E+00 0.00000E+00 0.00000E+00
 -1         7 0.00000E+00 0.00000E+00 0.00000E+00
 -1         8 0.00000E+00 0.00000E+00 0.00000E+00
 -1        21 0.00000E+00 0.00000E+00 0.00000E+00
 -1        22 0.00000E+00 0.00000E+00 0.00000E+00
 -1        23 0.00000E+00 0.00000E+00 0.00000E+00
 -1        24 0.00000E+00 0.00000E+00 0.00000E+00
 -1        25 0.00000E+00 0.00000E+00 0.00000E+00
 -1        26 0.00000E+00 0.00000E+00 0.00000E+00
 -1        27 0.00000E+00 0.00000E+00 0.00000E+00
 -1        28 0.00000E+00 0.00000E+00 0.00000E+00
 -1        29 0.00000E+00 0.00000E+00 0.00000E+00
 -1        30 0.00000E+00 0.00000E+00 0.00000E+00
 -1        31 0.00000E+00 0.00000E+00 0.00000E+00
 -1        32 0.00000E+00 0.00000E+00 0.00000E+00
 -1        44 1.54201E-04-2.02136E-03 2.88812E-04
 -1        45 4.22918E-05-1.55753E-03 4.71398E-04
 -1        46-4.81509E-05-1.13232E-03 5.44700E-04
 -1        47 6.92076E-05-4.53484E-04 3.50506E-04
 -1        48-6.92075E-05-4.53484E-04 3.50506E-04
 -1        49 4.81513E-05-1.13232E-03 5.44699E-04
 -1        50-4.22907E-05-1.55753E-03 4.71398E-04
 -1        51-1.54199E-04-2.02136E-03 2.88810E-04
 -1        74-1.27825E-04-2.11133E-03-2.93221E-04
 -1        75-1.80189E-05-1.59680E-03-4.71462E-04
 -1        76 3.29465E-05-1.11358E-03-5.44823E-04
 -1        77-7.67378E-05-4.39347E-04-3.51918E-04
 -1        89 1.27828E-04-2.11133E-03-2.93222E-04
 -1        90 1.80198E-05-1.59680E-03-4.71463E-04
 -1        91-3.29461E-05-1.11358E-03-5.44824E-04
 -1        92 7.67379E-05-4.39347E-04-3.51918E-04
 -1        98 0.00000E+00 0.00000E+00 0.00000E+00
 -1        99 0.00000E+00 0.00000E+00 0.00000E+00
 -1       100 0.00000E+00 0.00000E+00 0.00000E+00
 -1       101 0.00000E+00 0.00000E+00 0.00000E+00
 -1       102 0.00000E+00 0.00000E+00 0.00000E+00
 -1       124 8.03442E-06-1.83844E-03 2.72765E-04
 -1       125 1.01328E-09-2.20118E-03 2.86024E-04
 -1       126-8.03225E-06-1.83844E-03 2.72766E-04
 -1       127 5.77620E-10-1.61296E-03 5.24541E-04
 -1       128 2.91062E-06-1.19465E-03 5.77647E-04
 -1       129 1.53419E-10-1.10814E-03 5.86281E-04
 -1       130-2.91027E-06-1.19465E-03 5.77648E-04
 -1       131 2.41082E-11-4.65097E-04 3.43284E-04
 -1       153-1.25428E-04-2.36204E-03 1.27495E-04
 -1       154-1.06226E-05-2.02250E-03-1.99530E-06
 -1       155 1.25018E-04-2.38769E-03-1.31951E-04
 -1       156-1.11196E-05-1.74512E-03-6.18381E-06
 -1       157 2.44425E-05-9.78060E-04 2.32949E-04
 -1       158 8.11158E-06-1.00102E-03-2.79845E-06
 -1       159-2.17524E-05-9.74555E-04-2.34720E-04
 -1       160 3.70259E-06-3.86559E-04 4.60597E-07
 -1       182 7.07590E-06-1.80034E-03-2.76700E-04
 -1       183 8.82033E-10-2.27300E-03-2.88741E-04
 -1       184-7.07383E-06-1.80034E-03-2.76700E-04
 -1       185 5.82226E-10-1.63806E-03-5.21623E-04
 -1       186-8.33456E-07-1.21451E-03-5.80943E-04
 -1       187 7.58717E-11-1.11007E-03-5.88321E-04
 -1       188 8.33723E-07-1.21451E-03-5.80944E-04
 -1       189 6.84031E-12-4.63740E-04-3.44077E-04
 -1       211-1.25014E-04-2.38769E-03-1.31953E-04
 -1       212 1.06266E-05-2.02250E-03-1.99750E-06
 -1       213 1.25432E-04-2.36204E-03 1.27493E-04
 -1       214 1.11202E-05-1.74512E-03-6.18482E-06
 -1       215 2.17530E-05-9.74556E-04-2.34721E-04
 -1       216-8.11076E-06-1.00102E-03-2.79885E-06
 -1       217-2.44419E-05-9.78060E-04 2.32949E-04
 -1       218-3.70254E-06-3.86559E-04 4.60525E-07
 -1       250 8.40053E-10-2.39678E-03 1.25144E-04
 -1       251 3.46184E-06-1.51603E-03-1.00447E-06
 -1       252 6.46321E-10-1.92035E-03-1.51427E-06
 -1       253-3.45936E-06-1.51603E-03-1.00445E-06
 -1       254 7.61745E-10-2.42615E-03-1.32771E-04
 -1       255 7.32172E-10-1.69449E-03-3.01899E-06
 -1       256 7.80351E-11-9.76668E-04 2.55693E-04
 -1       257-3.98287E-06-1.12816E-03-1.14253E-06
 -1       258-5.44450E-12-1.02413E-03-1.38836E-06
 -1       259 3.98329E-06-1.12816E-03-1.14209E-06
 -1       260 4.26481E-11-9.78608E-04-2.57856E-04
 -1       261 6.24089E-11-4.34606E-04-1.75844E-07
 -3
    1PSTEP                         2           2           1          
  100CL  102 4.00000E-02          81                     1    2           1
 -4  DISP        4    1
 -5  D1          1    2    1    0
 -5  D2          1    2    2    0
 -5  D3          1    2    3    0
 -5  ALL         1    2    0    0    1ALL
 -1         5 0.00000E+00 0.00000E+00 0.00000E+00
 -1         6 0.00000E+00 0.00000E+00 0.00000E+00
 -1         7 0.00000E+00 0.00000E+00 0.00000E+00
 -1         8 0.00000E+00 0.00000E+00 0.00000E+00
 -1        21 0.00000E+00 0.00000E+00 0.00000E+00
 -1        22 0.00000E+00 0.00000E+00 0.00000E+00
 -1        23 0.00000E+00 0.00000E+00 0.00000E+00
 -1        24 0.00000E+00 0.00000E+00 0.00000E+00
 -1        25 0.00000E+00 0.00000E+00 0.00000E+00
 -1        26 0.00000E+00 0.00000E+00 0.00000E+00
 -1        27 0.00000E+00 0.00000E+00 0.00000E+00
 -1        28 0.00000E+00 0.00000E+00 0.00000E+00
 -1        29 0.00000E+00 0.00000E+00 0.00000E+00
 -1        30 0.00000E+00 0.00000E+00 0.00000E+00
 -1        31 0.00000E+00 0.00000E+00 0.00000E+00
 -1        32 0.00000E+00 0.00000E+00 0.00000E+00
 -1        44-1.51295E-04 1.60895E-03-2.33937E-04
 -1        45-3.53003E-05 1.24934E-03-3.77318E-04
 -1        46 4.15728E-05 9.13884E-04-4.32303E-04
 -1        47-5.39757E-05 3.69812E-04-2.84010E-04
 -1        48 5.39751E-05 3.69811E-04-2.84007E-04
 -1        49-4.15718E-05 9.13882E-04-4.32300E-04
 -1        50 3.52871E-05 1.24934E-03-3.77317E-04
 -1        51 1.51280E-04 1.60896E-03-2.33932E-04
 -1        74 1.49547E-04 1.61421E-03 2.34169E-04
 -1        75 3.37823E-05 1.25167E-03 3.77311E-04
 -1        76-4.06340E-05 9.12736E-04 4.32300E-04
 -1        77 5.44347E-05 3.68986E-04 2.84082E-04
 -1        89-1.49561E-04 1.61420E-03 2.34169E-04
 -1        90-3.37958E-05 1.25167E-03 3.77310E-04
 -1        91 4.06352E-05 9.12737E-04 4.32304E-04
 -1        92-5.44354E-05 3.68988E-04 2.84086E-04
 -1        98 0.00000E+00 0.00000E+00 0.00000E+00
 -1        99 0.00000E+00 0.00000E+00 0.00000E+00
 -1       100 0.00000E+00 0.00000E+00 0.00000E+00
 -1       101 0.00000E+00 0.00000E+00 0.00000E+00
 -1       102 0.00000E+00 0.00000E+00 0.00000E+00
 -1       124 4.64109E-06 1.47970E-03-2.20458E-04
 -1       125-1.39458E-08 1.76854E-03-2.31335E-04
 -1       126-4.65979E-06 1.47970E-03-2.20466E-04
 -1       127-1.89593E-09 1.30158E-03-4.17366E-04
 -1       128-3.43691E-06 9.59148E-04-4.63533E-04
 -1       129-3.64850E-09 8.89447E-04-4.72312E-04
 -1       130 3.43307E-06 9.59148E-04-4.63533E-04
 -1       131 2.91408E-10 3.75418E-04-2.76036E-04
 -1       153 1.24778E-04 1.91683E-03-1.03877E-04
 -1       154 5.26597E-07 1.69368E-03 1.00229E-07
 -1       155-1.24667E-04 1.91827E-03 1.04104E-04
 -1       156 6.22292E-07 1.40662E-03 3.50157E-07
 -1       157-2.49824E-05 7.92933E-04-1.86043E-04
 -1       158-4.51329E-07 8.09856E-04 1.57503E-07
 -1       159 2.48155E-05 7.92711E-04 1.86132E-04
 -1       160-2.04282E-07 3.08196E-04-2.34276E-08
 -1       182 4.67661E-06 1.47750E-03 2.20668E-04
 -1       183-1.35902E-08 1.77259E-03 2.31478E-04
 -1       184-4.69477E-06 1.47749E-03 2.20672E-04
 -1       185-2.42023E-09 1.30294E-03 4.17161E-04
 -1       186-3.21132E-06 9.60239E-04 4.63709E-04
 -1       187-3.47517E-09 8.89514E-04 4.72403E-04
 -1       188 3.20775E-06 9.60239E-04 4.63710E-04
 -1       189 2.54130E-10 3.75332E-04 2.76073E-04
 -1       211 1.24658E-04 1.91826E-03 1.04110E-04
 -1       212-5.41120E-07 1.69368E-03 9.93470E-08
 -1       213-1.24788E-04 1.91684E-03-1.03871E-04
 -1       214-6.25835E-07 1.40662E-03 3.54996E-07
 -1       215-2.48190E-05 7.92713E-04 1.86134E-04
 -1       216 4.45106E-07 8.09855E-04 1.61225E-07
 -1       217 2.49789E-05 7.92931E-04-1.86040E-04
 -1       218 2.03447E-07 3.08195E-04-2.28375E-08
 -1       250-6.41789E-09 1.90982E-03-1.03057E-04
 -1       251-1.60028E-07 1.20955E-03 4.55677E-08
 -1       252 3.57304E-09 1.54248E-03 7.91362E-08
 -1       253 1.54957E-07 1.20955E-03 5.03777E-08
 -1       254-5.94233E-09 1.91151E-03 1.03465E-04
 -1       255-4.16017E-09 1.37515E-03 1.60847E-07
 -1       256-1.50608E-09 7.83330E-04-2.07268E-04
 -1       257 2.15499E-07 9.13995E-04 6.08577E-08
 -1       258 1.47192E-10 8.12386E-04 7.30209E-08
 -1       259-2.17891E-07 9.13995E-04 5.79376E-08
 -1       260-1.49431E-09 7.83414E-04 2.07383E-04
 -1       261-1.08833E-09 3.48466E-04 1.06017E-08
 -3
    1PSTEP                         3           3           1          
  100CL  103 6.00000E-02          81                     1    3           1
 -4  DISP        4    1
 -5  D1          1    2    1    0
 -5  D2          1    2    2    0
 -5  D3          1    2    3    0
 -5  ALL         1    2    0    0    1ALL
 -1         5 0.00000E+00 0.00000E+00 0.00000E+00
 -1         6 0.00000E+00 0.00000E+00 0.00000E+00
 -1         7 0.00000E+00 0.00000E+00 0.00000E+00
 -1         8 0.00000E+00 0.00000E+00 0.00000E+00
 -1        21 0.00000E+00 0.00000E+00 0.00000E+00
 -1        22 0.00000E+00 0.00000E+00 0.00000E+00
 -1        23 0.00000E+00 0.00000E+00 0.00000E+00
 -1        24 0.00000E+00 0.00000E+00 0.00000E+00
 -1        25 0.00000E+00 0.00000E+00 0.00000E+00
 -1        26 0.00000E+00 0.00000E+00 0.00000E+00
 -1        27 0.00000E+00 0.00000E+00 0.00000E+00
 -1        28 0.00000E+00 0.00000E+00 0.00000E+00
 -1        29 0.00000E+00 0.00000E+00 0.00000E+00
 -1        30 0.00000E+00 0.00000E+00 0.00000E+00
 -1        31 0.00000E+00 0.00000E+00 0.00000E+00
 -1        32 0.00000E+00 0.00000E+00 0.00000E+00
 -1        44 1.20931E-04-1.27407E-03 1.85399E-04
 -1        45 2.78635E-05-9.89697E-04 2.98786E-04
 -1        46-3.29806E-05-7.23978E-04 3.42157E-04
 -1        47 4.27199E-05-2.93145E-04 2.25084E-04
 -1        48-4.27200E-05-2.93145E-04 2.25085E-04
 -1        49 3.29806E-05-7.23980E-04 3.42159E-04
 -1        50-2.78678E-05-9.89696E-04 2.98786E-04
 -1        51-1.20939E-04-1.27406E-03 1.85401E-04
 -1        74-1.21008E-04-1.27426E-03-1.85415E-04
 -1        75-2.78646E-05-9.89764E-04-2.98781E-04
 -1        76 3.29762E-05-7.23951E-04-3.42155E-04
 -1        77-4.27206E-05-2.93117E-04-2.25089E-04
 -1        89 1.20999E-04-1.27427E-03-1.85413E-04
 -1        90 2.78595E-05-9.89765E-04-2.98781E-04
 -1        91-3.29760E-05-7.23950E-04-3.42153E-04
 -1        92 4.27205E-05-2.93116E-04-2.25087E-04
 -1        98 0.00000E+00 0.00000E+00 0.00000E+00
 -1        99 0.00000E+00 0.00000E+00 0.00000E+00
 -1       100 0.00000E+00 0.00000E+00 0.00000E+00
 -1       101 0.00000E+00 0.00000E+00 0.00000E+00
 -1       102 0.00000E+00 0.00000E+00 0.00000E+00
 -1       124-4.19920E-06-1.17206E-03 1.74697E-04
 -1       125-4.37178E-09-1.40107E-03 1.83317E-04
 -1       126 4.19192E-06-1.17205E-03 1.74695E-04
 -1       127-1.03792E-09-1.03129E-03 3.30364E-04
 -1       128 2.75111E-06-7.59747E-04 3.67136E-04
 -1       129-1.00716E-09-7.04470E-04 3.74166E-04
 -1       130-2.75243E-06-7.59747E-04 3.67135E-04
 -1       131 1.29730E-10-2.97453E-04 2.18661E-04
 -1       153-9.99478E-05-1.51927E-03 8.23505E-05
 -1       154-8.30251E-08-1.34487E-03-2.65149E-09
 -1       155 1.00003E-04-1.51934E-03-8.23662E-05
 -1       156-4.59237E-08-1.11441E-03-1.23043E-08
 -1       157 2.00299E-05-6.28413E-04 1.47309E-04
 -1       158 3.28526E-08-6.41766E-04-7.39624E-09
 -1       159-2.00380E-05-6.28410E-04-1.47314E-04
 -1       160 1.47128E-08-2.44015E-04 1.81536E-09
 -1       182-4.24397E-06-1.17195E-03-1.74707E-04
 -1       183-5.83123E-09-1.40130E-03-1.83325E-04
 -1       184 4.23505E-06-1.17195E-03-1.74703E-04
 -1       185-7.74698E-10-1.03140E-03-3.30369E-04
 -1       186 2.75145E-06-7.59802E-04-3.67145E-04
 -1       187-1.33228E-09-7.04454E-04-3.74178E-04
 -1       188-2.75297E-06-7.59802E-04-3.67144E-04
 -1       189 1.26153E-10-2.97439E-04-2.18663E-04
 -1       211-1.00008E-04-1.51934E-03-8.23612E-05
 -1       212 7.87639E-08-1.34487E-03-7.12375E-09
 -1       213 9.99434E-05-1.51927E-03 8.23529E-05
 -1       214 4.44631E-08-1.11441E-03-1.09959E-08
 -1       215 2.00368E-05-6.28409E-04-1.47314E-04
 -1       216-3.48503E-08-6.41765E-04-5.73228E-09
 -1       217-2.00313E-05-6.28414E-04 1.47309E-04
 -1       218-1.50332E-08-2.44015E-04 2.17098E-09
 -1       250-1.88601E-09-1.51209E-03 8.17647E-05
 -1       251 2.67169E-08-9.57694E-04-5.91313E-09
 -1       252 1.36426E-09-1.22179E-03-2.53035E-09
 -1       253-2.81692E-08-9.57695E-04-1.75912E-09
 -1       254-2.71209E-09-1.51219E-03-8.17839E-05
 -1       255-1.61346E-09-1.08991E-03-8.96889E-09
 -1       256-3.80753E-10-6.20418E-04 1.64268E-04
 -1       257-1.53901E-08-7.24352E-04-2.30093E-09
 -1       258 1.21051E-10-6.43009E-04-3.93159E-09
 -1       259 1.47676E-08-7.24352E-04-3.58826E-09
 -1       260-5.18974E-10-6.20412E-04-1.64273E-04
 -1       261-3.80292E-10-2.75996E-04-1.26615E-09
 -3
    1PSTEP                         4           4           1          
  100CL  104 8.00000E-02          81                     1    4           1
 -4  DISP        4    1
 -5  D1          1    2    1    0
 -5  D2          1    2    2    0
 -5  D3          1    2    3    0
 -5  ALL         1    2    0    0    1ALL
 -1         5 0.00000E+00 0.00000E+00 0.00000E+00
 -1         6 0.00000E+00 0.00000E+00 0.00000E+00
 -1         7 0.00000E+00 0.00000E+00 0.00000E+00
 -1         8 0.00000E+00 0.00000E+00 0.00000E+00
 -1        21 0.00000E+00 0.00000E+00 0.00000E+00
 -1        22 0.00000E+00 0.00000E+00 0.00000E+00
 -1        23 0.00000E+00 0.00000E+00 0.00000E+00
 -1        24 0.00000E+00 0.00000E+00 0.00000E+00
 -1        25 0.00000E+00 0.00000E+00 0.00000E+00
 -1        26 0.00000E+00 0.00000E+00 0.00000E+00
 -1        27 0.00000E+00 0.00000E+00 0.00000E+00
 -1        28 0.00000E+00 0.00000E+00 0.00000E+00
 -1        29 0.00000E+00 0.00000E+00 0.00000E+00
 -1        30 0.00000E+00 0.00000E+00 0.00000E+00
 -1        31 0.00000E+00 0.00000E+00 0.00000E+00
 -1        32 0.00000E+00 0.00000E+00 0.00000E+00
 -1        44-9.40162E-05 9.88745E-04-1.43908E-04
 -1        45-2.16637E-05 7.68122E-04-2.31907E-04
 -1        46 2.56248E-05 5.61982E-04-2.65558E-04
 -1        47-3.31429E-05 2.27566E-04-1.74712E-04
 -1        48 3.31431E-05 2.27566E-04-1.74713E-04
 -1        49-2.56250E-05 5.61982E-04-2.65559E-04
 -1        50 2.16674E-05 7.68121E-04-2.31907E-04
 -1        51 9.40228E-05 9.88739E-04-1.43909E-04
 -1        74 9.40130E-05 9.88743E-04 1.43909E-04
 -1        75 2.16633E-05 7.68124E-04 2.31907E-04
 -1        76-2.56254E-05 5.61984E-04 2.65560E-04
 -1        77 3.31443E-05 2.27565E-04 1.74713E-04
 -1        89-9.40074E-05 9.88748E-04 1.43909E-04
 -1        90-2.16597E-05 7.68125E-04 2.31907E-04
 -1        91 2.56248E-05 5.61984E-04 2.65559E-04
 -1        92-3.31442E-05 2.27565E-04 1.74712E-04
 -1        98 0.00000E+00 0.00000E+00 0.00000E+00
 -1        99 0.00000E+00 0.00000E+00 0.00000E+00
 -1       100 0.00000E+00 0.00000E+00 0.00000E+00
 -1       101 0.00000E+00 0.00000E+00 0.00000E+00
 -1       102 0.00000E+00 0.00000E+00 0.00000E+00
 -1       124 3.32691E-06 9.09781E-04-1.35598E-04
 -1       125 4.03820E-09 1.08740E-03-1.42291E-04
 -1       126-3.32065E-06 9.09781E-04-1.35598E-04
 -1       127 8.78821E-10 8.00464E-04-2.56415E-04
 -1       128-2.14668E-06 5.89687E-04-2.84962E-04
 -1       129 9.05515E-10 5.46809E-04-2.90427E-04
 -1       130 2.14778E-06 5.89687E-04-2.84961E-04
 -1       131-6.41384E-11 2.30888E-04-1.69720E-04
 -1       153 7.76778E-05 1.17927E-03-6.39218E-05
 -1       154-1.96434E-09 1.04416E-03-8.55833E-10
 -1       155-7.76708E-05 1.17929E-03 6.39255E-05
 -1       156-7.87923E-10 8.65026E-04 9.95384E-10
 -1       157-1.55694E-05 4.87789E-04-1.14335E-04
 -1       158 2.38227E-09 4.98123E-04 8.93480E-10
 -1       159 1.55692E-05 4.87786E-04 1.14336E-04
 -1       160 2.83235E-10 1.89381E-04 1.51567E-10
 -1       182 3.30315E-06 9.09781E-04 1.35599E-04
 -1       183 4.10671E-09 1.08740E-03 1.42291E-04
 -1       184-3.29732E-06 9.09781E-04 1.35598E-04
 -1       185 4.64186E-10 8.00464E-04 2.56415E-04
 -1       186-2.14251E-06 5.89688E-04 2.84962E-04
 -1       187 9.03396E-10 5.46811E-04 2.90428E-04
 -1       188 2.14340E-06 5.89688E-04 2.84962E-04
 -1       189-1.40539E-10 2.30890E-04 1.69721E-04
 -1       211 7.76735E-05 1.17929E-03 6.39231E-05
 -1       212 4.81496E-09 1.04416E-03 1.35183E-09
 -1       213-7.76746E-05 1.17927E-03-6.39236E-05
 -1       214 1.78255E-09 8.65026E-04-8.64811E-11
 -1       215-1.55684E-05 4.87785E-04 1.14335E-04
 -1       216-8.39994E-10 4.98123E-04-2.88455E-10
 -1       217 1.55704E-05 4.87789E-04-1.14335E-04
 -1       218-5.74383E-11 1.89381E-04-1.15814E-10
 -1       250 1.56290E-09 1.17362E-03-6.34698E-05
 -1       251-8.17617E-09 7.43274E-04 1.55108E-09
 -1       252-1.51760E-09 9.48394E-04 6.11746E-10
 -1       253 8.66405E-09 7.43274E-04-4.45654E-10
 -1       254 1.64243E-09 1.17360E-03 6.34697E-05
 -1       255 1.05722E-09 8.46037E-04 4.53832E-10
 -1       256 3.65652E-10 4.81544E-04-1.27506E-04
 -1       257 1.76895E-09 5.62260E-04-2.34455E-10
 -1       258-6.76093E-11 4.99036E-04 1.93977E-10
 -1       259-1.27154E-09 5.62260E-04 5.81193E-10
 -1       260 3.52045E-10 4.81549E-04 1.27507E-04
 -1       261 3.03012E-10 2.14210E-04-1.10021E-10
 -3
    1PSTEP                         5           5           1          
  100CL  105 1.00000E-01          81                     1    5           1
 -4  DISP        4    1
 -5  D1          1    2    1    0
 -5  D2          1    2    2    0
 -5  D3          1    2    3    0
 -5  ALL         1    2    0    0    1ALL
 -1         5 0.00000E+00 0.00000E+00 0.00000E+00
 -1         6 0.00000E+00 0.00000E+00 0.00000E+00
 -1         7 0.00000E+00 0.00000E+00 0.00000E+00
 -1         8 0.00000E+00 0.00000E+00 0.00000E+00
 -1        21 0.00000E+00 0.00000E+00 0.00000E+00
 -1        22 0.00000E+00 0.00000E+00 0.00000E+00
 -1        23 0.00000E+00 0.00000E+00 0.00000E+00
 -1        24 0.00000E+00 0.00000E+00 0.00000E+00
 -1        25 0.00000E+00 0.00000E+00 0.00000E+00
 -1        26 0.00000E+00 0.00000E+00 0.00000E+00
 -1        27 0.00000E+00 0.00000E+00 0.00000E+00
 -1        28 0.00000E+00 0.00000E+00 0.00000E+00
 -1        29 0.00000E+00 0.00000E+00 0.00000E+00
 -1        30 0.00000E+00 0.00000E+00 0.00000E+00
 -1        31 0.00000E+00 0.00000E+00 0.00000E+00
 -1        32 0.00000E+00 0.00000E+00 0.00000E+00
 -1        44 7.12098E-05-7.46203E-04 1.08641E-04
 -1        45 1.64612E-05-5.79775E-04 1.75078E-04
 -1        46-1.94127E-05-4.24317E-04 2.00475E-04
 -1        47 2.49874E-05-1.71829E-04 1.31900E-04
 -1        48-2.49870E-05-1.71829E-04 1.31900E-04
 -1        49 1.94128E-05-4.24319E-04 2.00475E-04
 -1        50-1.64614E-05-5.79773E-04 1.75077E-04
 -1        51-7.12120E-05-7.46208E-04 1.08646E-04
 -1        74-7.10627E-05-7.46364E-04-1.08649E-04
 -1        75-1.63727E-05-5.79865E-04-1.75083E-04
 -1        76 1.93491E-05-4.24252E-04-2.00474E-04
 -1        77-2.50141E-05-1.71802E-04-1.31899E-04
 -1        89 7.10574E-05-7.46365E-04-1.08645E-04
 -1        90 1.63726E-05-5.79866E-04-1.75083E-04
 -1        91-1.93494E-05-4.24251E-04-2.00473E-04
 -1        92 2.50143E-05-1.71802E-04-1.31899E-04
 -1        98 0.00000E+00 0.00000E+00 0.00000E+00
 -1        99 0.00000E+00 0.00000E+00 0.00000E+00
 -1       100 0.00000E+00 0.00000E+00 0.00000E+00
 -1       101 0.00000E+00 0.00000E+00 0.00000E+00
 -1       102 0.00000E+00 0.00000E+00 0.00000E+00
 -1       124-2.51799E-06-6.86890E-04 1.02376E-04
 -1       125-3.09524E-10-8.20834E-04 1.07418E-04
 -1       126 2.51714E-06-6.86887E-04 1.02373E-04
 -1       127 4.62268E-10-6.04297E-04 1.93594E-04
 -1       128 1.62890E-06-4.45148E-04 2.15128E-04
 -1       129-2.37770E-10-4.12799E-04 2.19269E-04
 -1       130-1.62923E-06-4.45147E-04 2.15128E-04
 -1       131 1.32707E-10-1.74301E-04 1.28126E-04
 -1       153-5.87426E-05-8.90316E-04 4.82671E-05
 -1       154 3.19147E-08-7.88407E-04 1.14530E-09
 -1       155 5.86884E-05-8.90270E-04-4.82661E-05
 -1       156-4.47660E-09-6.53025E-04-1.02619E-08
 -1       157 1.17789E-05-3.68260E-04 8.63144E-05
 -1       158 4.53560E-09-3.76060E-04-3.18335E-09
 -1       159-1.17660E-05-3.68259E-04-8.63134E-05
 -1       160-7.60483E-11-1.42958E-04-6.55421E-10
 -1       182-2.57377E-06-6.86839E-04-1.02377E-04
 -1       183-9.69985E-10-8.20915E-04-1.07435E-04
 -1       184 2.57087E-06-6.86838E-04-1.02376E-04
 -1       185-5.88436E-11-6.04288E-04-1.93579E-04
 -1       186 1.62899E-06-4.45162E-04-2.15130E-04
 -1       187-4.68084E-11-4.12808E-04-2.19261E-04
 -1       188-1.62934E-06-4.45162E-04-2.15130E-04
 -1       189 7.97199E-11-1.74300E-04-1.28124E-04
 -1       211-5.86899E-05-8.90270E-04-4.82636E-05
 -1       212-3.00849E-08-7.88406E-04-4.93830E-09
 -1       213 5.87433E-05-8.90317E-04 4.82674E-05
 -1       214 4.73603E-09-6.53026E-04-1.08054E-08
 -1       215 1.17659E-05-3.68258E-04-8.63138E-05
 -1       216-4.27477E-09-3.76060E-04-2.89412E-09
 -1       217-1.17789E-05-3.68261E-04 8.63145E-05
 -1       218 6.34756E-11-1.42958E-04-8.39476E-10
 -1       250 5.06964E-11-8.85890E-04 4.79131E-05
 -1       251-4.98032E-08-5.61113E-04-2.01516E-09
 -1       252 1.03588E-09-7.15908E-04-3.80414E-09
 -1       253 5.13406E-08-5.61114E-04 1.92443E-09
 -1       254-1.30052E-10-8.86005E-04-4.79263E-05
 -1       255-1.47403E-10-6.38716E-04 2.91001E-10
 -1       256 1.31785E-10-3.63527E-04 9.62632E-05
 -1       257 6.22159E-09-4.24470E-04 2.12893E-10
 -1       258 3.52108E-10-3.76712E-04-8.15085E-11
 -1       259-5.62762E-09-4.24471E-04-1.29265E-10
 -1       260 1.87793E-10-3.63514E-04-9.62638E-05
 -1       261-6.58866E-11-1.61710E-04-8.29348E-11
 -3
    1PSTEP                         6           6           1          
  100CL  106 1.20000E-01          81                     1    6           1
 -4  DISP        4    1
 -5  D1          1    2    1    0
 -5  D2          1    2    2    0
 -5  D3          1    2    3    0
 -5  ALL         1    2    0    0    1ALL
 -1         5 0.00000E+00 0.00000E+00 0.00000E+00
 -1         6 0.00000E+00 0.00000E+00 0.00000E+00
 -1         7 0.00000E+00 0.00000E+00 0.00000E+00
 -1         8 0.00000E+00 0.00000E+00 0.00000E+00
 -1        21 0.00000E+00 0.00000E+00 0.00000E+00
 -1        22 0.00000E+00 0.00000E+00 0.00000E+00
 -1        23 0.00000E+00 0.00000E+00 0.00000E+00
 -1        24 0.00000E+00 0.00000E+00 0.00000E+00
 -1        25 0.00000E+00 0.00000E+00 0.00000E+00
 -1        26 0.00000E+00 0.00000E+00 0.00000E+00
 -1        27 0.00000E+00 0.00000E+00 0.00000E+00
 -1        28 0.00000E+00 0.00000E+00 0.00000E+00
 -1        29 0.00000E+00 0.00000E+00 0.00000E+00
 -1        30 0.00000E+00 0.00000E+00 0.00000E+00
 -1        31 0.00000E+00 0.00000E+00 0.00000E+00
 -1        32 0.00000E+00 0.00000E+00 0.00000E+00
 -1        44-5.15205E-05 5.41092E-04-7.87700E-05
 -1        45-1.18750E-05 4.20431E-04-1.26933E-04
 -1        46 1.40638E-05 3.07663E-04-1.45357E-04
 -1        47-1.81350E-05 1.24583E-04-9.56374E-05