    1C
    1UUSER                                                              
    1UDATE              12.july.2018                                    
    1UTIME              16:07:45                                        
    1UHOST                                                              
    1UPGM               CalculiX                                        
    1UVERSION           Version 2.13                             
    1UCOMPILETIME       jue jun 14 00:40:39 CEST 2018                    
    1UDIR                                                               
    1UDBN                                                               
    1UMAT    1EL                                                        
    2C                           201                                     1
 -1         1 0.00000E+00 0.00000E+00 0.00000E+00
 -1         2 1.00000E+00 0.00000E+00 0.00000E+00
 -1         3 1.00000E+00 1.00000E+00 0.00000E+00
 -1         4 0.00000E+00 1.00000E+00 0.00000E+00
 -1         9 2.50000E-01 0.00000E+00 0.00000E+00
 -1        10 5.00000E-01 0.00000E+00 0.00000E+00
 -1        11 7.50000E-01 0.00000E+00 0.00000E+00
 -1        12 1.00000E+00 2.50000E-01 0.00000E+00
 -1        13 1.00000E+00 5.00000E-01 0.00000E+00
 -1        14 1.00000E+00 7.50000E-01 0.00000E+00
 -1        15 7.50000E-01 1.00000E+00 0.00000E+00
 -1        16 5.00000E-01 1.00000E+00 0.00000E+00
 -1        17 2.50000E-01 1.00000E+00 0.00000E+00
 -1        18 0.00000E+00 7.50000E-01 0.00000E+00
 -1        19 0.00000E+00 5.00000E-01 0.00000E+00
 -1        20 0.00000E+00 2.50000E-01 0.00000E+00
 -1        33 1.00000E+00 0.00000E+00 5.00000E-01
 -1        34 1.00000E+00 0.00000E+00 1.00000E+00
 -1        35 1.00000E+00 0.00000E+00 1.50000E+00
 -1        36 1.00000E+00 0.00000E+00 2.00000E+00
 -1        37 1.00000E+00 0.00000E+00 2.50000E+00
 -1        38 1.00000E+00 0.00000E+00 3.00000E+00
 -1        39 1.00000E+00 0.00000E+00 3.50000E+00
 -1        40 1.00000E+00 0.00000E+00 4.00000E+00
 -1        41 1.00000E+00 0.00000E+00 4.50000E+00
 -1        42 1.00000E+00 0.00000E+00 5.00000E+00
 -1        43 1.00000E+00 0.00000E+00 5.50000E+00
 -1        44 1.00000E+00 0.00000E+00 6.00000E+00
 -1        51 0.00000E+00 0.00000E+00 6.00000E+00
 -1        52 0.00000E+00 0.00000E+00 5.50000E+00
 -1        53 0.00000E+00 0.00000E+00 5.00000E+00
 -1        54 0.00000E+00 0.00000E+00 4.50000E+00
 -1        55 0.00000E+00 0.00000E+00 4.00000E+00
 -1        56 0.00000E+00 0.00000E+00 3.50000E+00
 -1        57 0.00000E+00 0.00000E+00 3.00000E+00
 -1        58 0.00000E+00 0.00000E+00 2.50000E+00
 -1        59 0.00000E+00 0.00000E+00 2.00000E+00
 -1        60 0.00000E+00 0.00000E+00 1.50000E+00
 -1        61 0.00000E+00 0.00000E+00 1.00000E+00
 -1        62 0.00000E+00 0.00000E+00 5.00000E-01
 -1        63 1.00000E+00 1.00000E+00 5.00000E-01
 -1        64 1.00000E+00 1.00000E+00 1.00000E+00
 -1        65 1.00000E+00 1.00000E+00 1.50000E+00
 -1        66 1.00000E+00 1.00000E+00 2.00000E+00
 -1        67 1.00000E+00 1.00000E+00 2.50000E+00
 -1        68 1.00000E+00 1.00000E+00 3.00000E+00
 -1        69 1.00000E+00 1.00000E+00 3.50000E+00
 -1        70 1.00000E+00 1.00000E+00 4.00000E+00
 -1        71 1.00000E+00 1.00000E+00 4.50000E+00
 -1        72 1.00000E+00 1.00000E+00 5.00000E+00
 -1        73 1.00000E+00 1.00000E+00 5.50000E+00
 -1        74 1.00000E+00 1.00000E+00 6.00000E+00
 -1        78 0.00000E+00 1.00000E+00 5.00000E-01
 -1        79 0.00000E+00 1.00000E+00 1.00000E+00
 -1        80 0.00000E+00 1.00000E+00 1.50000E+00
 -1        81 0.00000E+00 1.00000E+00 2.00000E+00
 -1        82 0.00000E+00 1.00000E+00 2.50000E+00
 -1        83 0.00000E+00 1.00000E+00 3.00000E+00
 -1        84 0.00000E+00 1.00000E+00 3.50000E+00
 -1        85 0.00000E+00 1.00000E+00 4.00000E+00
 -1        86 0.00000E+00 1.00000E+00 4.50000E+00
 -1        87 0.00000E+00 1.00000E+00 5.00000E+00
 -1        88 0.00000E+00 1.00000E+00 5.50000E+00
 -1        89 0.00000E+00 1.00000E+00 6.00000E+00
 -1        93 5.00000E-01 2.50000E-01 0.00000E+00
 -1        94 2.50000E-01 5.00000E-01 0.00000E+00
 -1        95 5.00000E-01 5.00000E-01 0.00000E+00
 -1        96 7.50000E-01 5.00000E-01 0.00000E+00
 -1        97 5.00000E-01 7.50000E-01 0.00000E+00
 -1       103 5.00000E-01 0.00000E+00 5.00000E-01
 -1       104 2.50000E-01 0.00000E+00 1.00000E+00
 -1       105 5.00000E-01 0.00000E+00 1.00000E+00
 -1       106 7.50000E-01 0.00000E+00 1.00000E+00
 -1       107 5.00000E-01 0.00000E+00 1.50000E+00
 -1       108 2.50000E-01 0.00000E+00 2.00000E+00
 -1       109 5.00000E-01 0.00000E+00 2.00000E+00
 -1       110 7.50000E-01 0.00000E+00 2.00000E+00
 -1       111 5.00000E-01 0.00000E+00 2.50000E+00
 -1       112 2.50000E-01 0.00000E+00 3.00000E+00
 -1       113 5.00000E-01 0.00000E+00 3.00000E+00
 -1       114 7.50000E-01 0.00000E+00 3.00000E+00
 -1       115 5.00000E-01 0.00000E+00 3.50000E+00
 -1       116 2.50000E-01 0.00000E+00 4.00000E+00
 -1       117 5.00000E-01 0.00000E+00 4.00000E+00
 -1       118 7.50000E-01 0.00000E+00 4.00000E+00
 -1       119 5.00000E-01 0.00000E+00 4.50000E+00
 -1       120 2.50000E-01 0.00000E+00 5.00000E+00
 -1       121 5.00000E-01 0.00000E+00 5.00000E+00
 -1       122 7.50000E-01 0.00000E+00 5.00000E+00
 -1       123 5.00000E-01 0.00000E+00 5.50000E+00
 -1       124 2.50000E-01 0.00000E+00 6.00000E+00
 -1       125 5.00000E-01 0.00000E+00 6.00000E+00
 -1       126 7.50000E-01 0.00000E+00 6.00000E+00
 -1       132 1.00000E+00 5.00000E-01 5.00000E-01
 -1       133 1.00000E+00 2.50000E-01 1.00000E+00
 -1       134 1.00000E+00 5.00000E-01 1.00000E+00
 -1       135 1.00000E+00 7.50000E-01 1.00000E+00
 -1       136 1.00000E+00 5.00000E-01 1.50000E+00
 -1       137 1.00000E+00 2.50000E-01 2.00000E+00
 -1       138 1.00000E+00 5.00000E-01 2.00000E+00
 -1       139 1.00000E+00 7.50000E-01 2.00000E+00
 -1       140 1.00000E+00 5.00000E-01 2.50000E+00
 -1       141 1.00000E+00 2.50000E-01 3.00000E+00
 -1       142 1.00000E+00 5.00000E-01 3.00000E+00
 -1       143 1.00000E+00 7.50000E-01 3.00000E+00
 -1       144 1.00000E+00 5.00000E-01 3.50000E+00
 -1       145 1.00000E+00 2.50000E-01 4.00000E+00
 -1       146 1.00000E+00 5.00000E-01 4.00000E+00
 -1       147 1.00000E+00 7.50000E-01 4.00000E+00
 -1       148 1.00000E+00 5.00000E-01 4.50000E+00
 -1       149 1.00000E+00 2.50000E-01 5.00000E+00
 -1       150 1.00000E+00 5.00000E-01 5.00000E+00
 -1       151 1.00000E+00 7.50000E-01 5.00000E+00
 -1       152 1.00000E+00 5.00000E-01 5.50000E+00
 -1       153 1.00000E+00 2.50000E-01 6.00000E+00
 -1       154 1.00000E+00 5.00000E-01 6.00000E+00
 -1       155 1.00000E+00 7.50000E-01 6.00000E+00
 -1       161 5.00000E-01 1.00000E+00 5.00000E-01
 -1       162 7.50000E-01 1.00000E+00 1.00000E+00
 -1       163 5.00000E-01 1.00000E+00 1.00000E+00
 -1       164 2.50000E-01 1.00000E+00 1.00000E+00
 -1       165 5.00000E-01 1.00000E+00 1.50000E+00
 -1       166 7.50000E-01 1.00000E+00 2.00000E+00
 -1       167 5.00000E-01 1.00000E+00 2.00000E+00
 -1       168 2.50000E-01 1.00000E+00 2.00000E+00
 -1       169 5.00000E-01 1.00000E+00 2.50000E+00
 -1       170 7.50000E-01 1.00000E+00 3.00000E+00
 -1       171 5.00000E-01 1.00000E+00 3.00000E+00
 -1       172 2.50000E-01 1.00000E+00 3.00000E+00
 -1       173 5.00000E-01 1.00000E+00 3.50000E+00
 -1       174 7.50000E-01 1.00000E+00 4.00000E+00
 -1       175 5.00000E-01 1.00000E+00 4.00000E+00
 -1       176 2.50000E-01 1.00000E+00 4.00000E+00
 -1       177 5.00000E-01 1.00000E+00 4.50000E+00
 -1       178 7.50000E-01 1.00000E+00 5.00000E+00
 -1       179 5.00000E-01 1.00000E+00 5.00000E+00
 -1       180 2.50000E-01 1.00000E+00 5.00000E+00
 -1       181 5.00000E-01 1.00000E+00 5.50000E+00
 -1       182 7.50000E-01 1.00000E+00 6.00000E+00
 -1       183 5.00000E-01 1.00000E+00 6.00000E+00
 -1       184 2.50000E-01 1.00000E+00 6.00000E+00
 -1       190 0.00000E+00 5.00000E-01 5.00000E-01
 -1       191 0.00000E+00 7.50000E-01 1.00000E+00
 -1       192 0.00000E+00 5.00000E-01 1.00000E+00
 -1       193 0.00000E+00 2.50000E-01 1.00000E+00
 -1       194 0.00000E+00 5.00000E-01 1.50000E+00
 -1       195 0.00000E+00 7.50000E-01 2.00000E+00
 -1       196 0.00000E+00 5.00000E-01 2.00000E+00
 -1       197 0.00000E+00 2.50000E-01 2.00000E+00
 -1       198 0.00000E+00 5.00000E-01 2.50000E+00
 -1       199 0.00000E+00 7.50000E-01 3.00000E+00
 -1       200 0.00000E+00 5.00000E-01 3.00000E+00
 -1       201 0.00000E+00 2.50000E-01 3.00000E+00
 -1       202 0.00000E+00 5.00000E-01 3.50000E+00
 -1       203 0.00000E+00 7.50000E-01 4.00000E+00
 -1       204 0.00000E+00 5.00000E-01 4.00000E+00
 -1       205 0.00000E+00 2.50000E-01 4.00000E+00
 -1       206 0.00000E+00 5.00000E-01 4.50000E+00
 -1       207 0.00000E+00 7.50000E-01 5.00000E+00
 -1       208 0.00000E+00 5.00000E-01 5.00000E+00
 -1       209 0.00000E+00 2.50000E-01 5.00000E+00
 -1       210 0.00000E+00 5.00000E-01 5.50000E+00
 -1       211 0.00000E+00 7.50000E-01 6.00000E+00
 -1       212 0.00000E+00 5.00000E-01 6.00000E+00
 -1       213 0.00000E+00 2.50000E-01 6.00000E+00
 -1       219 5.00000E-01 5.00000E-01 5.00000E-01
 -1       220 5.00000E-01 2.50000E-01 1.00000E+00
 -1       221 2.50000E-01 5.00000E-01 1.00000E+00
 -1       222 5.00000E-01 5.00000E-01 1.00000E+00
 -1       223 7.50000E-01 5.00000E-01 1.00000E+00
 -1       224 5.00000E-01 7.50000E-01 1.00000E+00
 -1       225 5.00000E-01 5.00000E-01 1.50000E+00
 -1       226 5.00000E-01 2.50000E-01 2.00000E+00
 -1       227 2.50000E-01 5.00000E-01 2.00000E+00
 -1       228 5.00000E-01 5.00000E-01 2.00000E+00
 -1       229 7.50000E-01 5.00000E-01 2.00000E+00
 -1       230 5.00000E-01 7.50000E-01 2.00000E+00
 -1       231 5.00000E-01 5.00000E-01 2.50000E+00
 -1       232 5.00000E-01 2.50000E-01 3.00000E+00
 -1       233 2.50000E-01 5.00000E-01 3.00000E+00
 -1       234 5.00000E-01 5.00000E-01 3.00000E+00
 -1       235 7.50000E-01 5.00000E-01 3.00000E+00
 -1       236 5.00000E-01 7.50000E-01 3.00000E+00
 -1       237 5.00000E-01 5.00000E-01 3.50000E+00
 -1       238 5.00000E-01 2.50000E-01 4.00000E+00
 -1       239 2.50000E-01 5.00000E-01 4.00000E+00
 -1       240 5.00000E-01 5.00000E-01 4.00000E+00
 -1       241 7.50000E-01 5.00000E-01 4.00000E+00
 -1       242 5.00000E-01 7.50000E-01 4.00000E+00
 -1       243 5.00000E-01 5.00000E-01 4.50000E+00
 -1       244 5.00000E-01 2.50000E-01 5.00000E+00
 -1       245 2.50000E-01 5.00000E-01 5.00000E+00
 -1       246 5.00000E-01 5.00000E-01 5.00000E+00
 -1       247 7.50000E-01 5.00000E-01 5.00000E+00
 -1       248 5.00000E-01 7.50000E-01 5.00000E+00
 -1       249 5.00000E-01 5.00000E-01 5.50000E+00
 -1       250 5.00000E-01 2.50000E-01 6.00000E+00
 -1       251 2.50000E-01 5.00000E-01 6.00000E+00
 -1       252 5.00000E-01 5.00000E-01 6.00000E+00
 -1       253 7.50000E-01 5.00000E-01 6.00000E+00
 -1       254 5.00000E-01 7.50000E-01 6.00000E+00
 -3
    3C                            24                                     1
 -1         1    4    0    1
 -2         1        10        95        19        61       105       222       192         9        93
 -2        94        20        62       103       219       190       104       220       221       193
 -1         2    4    0    1
 -2        10         2        13        95       105        34       134       222        11        12
 -2        96        93       103        33       132       219       106       133       223       220
 -1         3    4    0    1
 -2        19        95        16         4       192       222       163        79        94        97
 -2        17        18       190       219       161        78       221       224       164       191
 -1         4    4    0    1
 -2        95        13         3        16       222       134        64       163        96        14
 -2        15        97       219       132        63       161       223       135       162       224
 -1         5    4    0    1
 -2        61       105       222       192        59       109       228       196       104       220
 -2       221       193        60       107       225       194       108       226       227       197
 -1         6    4    0    1
 -2       105        34       134       222       109        36       138       228       106       133
 -2       223       220       107        35       136       225       110       137       229       226
 -1         7    4    0    1
 -2       192       222       163        79       196       228       167        81       221       224
 -2       164       191       194       225       165        80       227       230       168       195
 -1         8    4    0    1
 -2       222       134        64       163       228       138        66       167       223       135
 -2       162       224       225       136        65       165       229       139       166       230
 -1         9    4    0    1
 -2        59       109       228       196        57       113       234       200       108       226
 -2       227       197        58       111       231       198       112       232       233       201
 -1        10    4    0    1
 -2       109        36       138       228       113        38       142       234       110       137
 -2       229       226       111        37       140       231       114       141       235       232
 -1        11    4    0    1
 -2       196       228       167        81       200       234       171        83       227       230
 -2       168       195       198       231       169        82       233       236       172       199
 -1        12    4    0    1
 -2       228       138        66       167       234       142        68       171       229       139
 -2       166       230       231       140        67       169       235       143       170       236
 -1        13    4    0    1
 -2        57       113       234       200        55       117       240       204       112       232
 -2       233       201        56       115       237       202       116       238       239       205
 -1        14    4    0    1
 -2       113        38       142       234       117        40       146       240       114       141
 -2       235       232       115        39       144       237       118       145       241       238
 -1        15    4    0    1
 -2       200       234       171        83       204       240       175        85       233       236
 -2       172       199       202       237       173        84       239       242       176       203
 -1        16    4    0    1
 -2       234       142        68       171       240       146        70       175       235       143
 -2       170       236       237       144        69       173       241       147       174       242
 -1        17    4    0    1
 -2        55       117       240       204        53       121       246       208       116       238
 -2       239       205        54       119       243       206       120       244       245       209
 -1        18    4    0    1
 -2       117        40       146       240       121        42       150       246       118       145
 -2       241       238       119        41       148       243       122       149       247       244
 -1        19    4    0    1
 -2       204       240       175        85       208       246       179        87       239       242
 -2       176       203       206       243       177        86       245       248       180       207
 -1        20    4    0    1
 -2       240       146        70       175       246       150        72       179       241       147
 -2       174       242       243       148        71       177       247       151       178       248
 -1        21    4    0    1
 -2        53       121       246       208        51       125       252       212       120       244
 -2       245       209        52       123       249       210       124       250       251       213
 -1        22    4    0    1
 -2       121        42       150       246       125        44       154       252       122       149
 -2       247       244       123        43       152       249       126       153       253       250
 -1        23    4    0    1
 -2       208       246       179        87       212       252       183        89       245       248
 -2       180       207       210       249       181        88       251       254       184       211
 -1        24    4    0    1
 -2       246       150        72       179       252       154        74       183       247       151
 -2       178       248       249       152        73       181       253       155       182       254
 -3
    1PSTEP                         1           1           1          
  100CL  101 2.00000E-02         201                     1    1           1
 -4  DISP        4    1
 -5  D1          1    2    1    0
 -5  D2          1    2    2    0
 -5  D3          1    2    3    0
 -5  ALL         1    2    0    0    1ALL
 -1         1 0.00000E+00 0.00000E+00 0.00000E+00
 -1         2 0.00000E+00 0.00000E+00 0.00000E+00
 -1         3 0.00000E+00 0.00000E+00 0.00000E+00
 -1         4 0.00000E+00 0.00000E+00 0.00000E+00
 -1         9 0.00000E+00 0.00000E+00 0.00000E+00
 -1        10 0.00000E+00 0.00000E+00 0.00000E+00
 -1        11 0.00000E+00 0.00000E+00 0.00000E+00
 -1        12 0.00000E+00 0.00000E+00 0.00000E+00
 -1        13 0.00000E+00 0.00000E+00 0.00000E+00
 -1        14 0.00000E+00 0.00000E+00 0.00000E+00
 -1        15 0.00000E+00 0.00000E+00 0.00000E+00
 -1        16 0.00000E+00 0.00000E+00 0.00000E+00
 -1        17 0.00000E+00 0.00000E+00 0.00000E+00
 -1        18 0.00000E+00 0.00000E+00 0.00000E+00
 -1        19 0.00000E+00 0.00000E+00 0.00000E+00
 -1        20 0.00000E+00 0.00000E+00 0.00000E+00
 -1        33 3.97341E-05-9.81123E-05-1.27829E-04
 -1        34 1.92705E-05-3.03438E-04-2.33129E-04
 -1        35 1.58561E-05-6.10636E-04-3.01402E-04
 -1        36 5.51681E-06-9.60153E-04-3.35574E-04
 -1        37-5.03210E-06-1.32869E-03-3.38091E-04
 -1        38-1.62166E-05-1.69533E-03-3.12631E-04
 -1        39-2.59406E-05-1.99681E-03-2.31385E-04
 -1        40-1.88839E-05-2.21364E-03-1.17081E-04
 -1        41-4.10103E-05-2.25262E-03-2.78050E-05
 -1        42-5.24602E-05-2.32436E-03-2.51816E-05
 -1        43 4.59897E-05-2.11689E-03 9.10204E-05
 -1        44 1.54915E-04-2.02113E-03 2.88842E-04
 -1        51-1.54943E-04-2.02113E-03 2.88854E-04
 -1        52-4.60280E-05-2.11689E-03 9.10290E-05
 -1        53 5.24155E-05-2.32436E-03-2.51775E-05
 -1        54 4.09642E-05-2.25262E-03-2.78044E-05
 -1        55 1.88392E-05-2.21363E-03-1.17083E-04
 -1        56 2.59002E-05-1.99681E-03-2.31390E-04
 -1        57 1.61822E-05-1.69533E-03-3.12637E-04
 -1        58 5.00486E-06-1.32868E-03-3.38098E-04
 -1        59-5.53650E-06-9.60153E-04-3.35580E-04
 -1        60-1.58686E-05-6.10637E-04-3.01408E-04
 -1        61-1.92768E-05-3.03439E-04-2.33134E-04
 -1        62-3.97362E-05-9.81132E-05-1.27832E-04
 -1        63-3.96233E-05-9.79491E-05 1.27504E-04
 -1        64-1.92601E-05-3.03387E-04 2.32431E-04
 -1        65-1.56481E-05-6.10588E-04 3.00423E-04
 -1        66-5.51755E-06-9.60761E-04 3.34268E-04
 -1        67 4.99963E-06-1.32777E-03 3.36480E-04
 -1        68 1.55854E-05-1.69542E-03 3.10239E-04
 -1        69 2.73847E-05-1.99775E-03 2.28848E-04
 -1        70 2.09572E-05-2.22216E-03 1.14670E-04
 -1        71 3.63882E-05-2.24127E-03 2.48622E-05
 -1        72 3.70967E-05-2.30003E-03 1.86245E-05
 -1        73-2.16310E-05-2.15531E-03-9.88544E-05
 -1        74-1.31368E-04-2.10883E-03-2.93271E-04
 -1        78 3.96213E-05-9.79483E-05 1.27501E-04
 -1        79 1.92538E-05-3.03387E-04 2.32426E-04
 -1        80 1.56354E-05-6.10588E-04 3.00417E-04
 -1        81 5.49768E-06-9.60761E-04 3.34261E-04
 -1        82-5.02708E-06-1.32778E-03 3.36473E-04
 -1        83-1.56201E-05-1.69542E-03 3.10233E-04
 -1        84-2.74253E-05-1.99775E-03 2.28844E-04
 -1        85-2.10023E-05-2.22216E-03 1.14668E-04
 -1        86-3.64345E-05-2.24127E-03 2.48628E-05
 -1        87-3.71421E-05-2.30003E-03 1.86285E-05
 -1        88 2.15922E-05-2.15531E-03-9.88457E-05
 -1        89 1.31339E-04-2.10883E-03-2.93258E-04
 -1        93 0.00000E+00 0.00000E+00 0.00000E+00
 -1        94 0.00000E+00 0.00000E+00 0.00000E+00
 -1        95 0.00000E+00 0.00000E+00 0.00000E+00
 -1        96 0.00000E+00 0.00000E+00 0.00000E+00
 -1        97 0.00000E+00 0.00000E+00 0.00000E+00
 -1       103-7.68928E-10-1.14638E-04-1.25403E-04
 -1       104-9.60161E-06-3.14917E-04-2.37129E-04
 -1       105-3.08073E-09-3.16469E-04-2.38698E-04
 -1       106 9.59552E-06-3.14917E-04-2.37127E-04
 -1       107-6.15905E-09-6.17504E-04-3.03136E-04
 -1       108-2.34823E-06-9.61603E-04-3.37774E-04
 -1       109-9.84420E-09-9.65769E-04-3.38136E-04
 -1       110 2.32855E-06-9.61603E-04-3.37771E-04
 -1       111-1.36561E-08-1.32416E-03-3.39157E-04
 -1       112 6.46239E-06-1.69750E-03-3.17180E-04
 -1       113-1.72433E-08-1.69069E-03-3.17589E-04
 -1       114-6.49689E-06-1.69750E-03-3.17178E-04
 -1       115-2.03322E-08-1.98369E-03-2.36273E-04
 -1       116 1.55691E-05-2.19135E-03-1.14320E-04
 -1       117-2.23839E-08-2.22457E-03-1.12259E-04
 -1       118-1.56139E-05-2.19135E-03-1.14319E-04
 -1       119-2.33731E-08-2.21832E-03-1.24421E-05
 -1       120 2.93108E-06-2.38227E-03-3.22773E-05
 -1       121-2.23057E-08-2.29057E-03-4.53907E-05
 -1       122-2.97598E-06-2.38228E-03-3.22794E-05
 -1       123-1.97156E-08-2.17498E-03 3.53476E-05
 -1       124 8.91703E-06-1.83855E-03 2.72831E-04
 -1       125-1.37465E-08-2.20177E-03 2.86114E-04
 -1       126-8.94460E-06-1.83855E-03 2.72825E-04
 -1       132 6.68534E-08-7.47385E-05-1.51687E-07
 -1       133 9.96498E-06-2.96133E-04-1.10039E-04
 -1       134 8.09020E-08-2.99216E-04-2.73219E-07
 -1       135-9.90066E-06-2.96143E-04 1.09394E-04
 -1       136-2.01934E-08-6.00245E-04-5.28317E-07
 -1       137 1.99582E-06-9.60721E-04-1.64413E-04
 -1       138 4.10241E-08-9.58636E-04-6.95274E-07
 -1       139-1.90704E-06-9.60880E-04 1.63136E-04
 -1       140 1.43200E-07-1.33319E-03-8.73891E-07
 -1       141-4.96875E-06-1.68715E-03-1.45865E-04
 -1       142 4.98098E-07-1.68779E-03-4.96035E-07
 -1       143 5.01571E-06-1.68775E-03 1.43949E-04
 -1       144-8.44780E-07-2.02099E-03-1.20696E-06
 -1       145-2.19816E-05-2.24164E-03-6.68323E-05
 -1       146-1.23927E-06-2.21234E-03-2.33645E-06
 -1       147 2.17332E-05-2.24389E-03 6.38441E-05
 -1       148 2.49393E-06-2.26727E-03-2.25196E-06
 -1       149 2.51877E-05-2.15275E-03 2.04288E-06
 -1       150 7.92036E-06-2.15743E-03-2.60613E-07
 -1       151-2.56727E-05-2.14654E-03-6.52517E-06
 -1       152-1.18182E-05-2.31070E-03 9.97593E-07
 -1       153-1.26144E-04-2.36373E-03 1.27526E-04
 -1       154-1.12798E-05-2.02434E-03-1.99676E-06
 -1       155 1.26688E-04-2.38698E-03-1.32033E-04
 -1       161-7.89241E-10-1.14524E-04 1.25048E-04
 -1       162-9.57719E-06-3.14855E-04 2.36486E-04
 -1       163-3.12036E-09-3.16237E-04 2.38011E-04
 -1       164 9.57101E-06-3.14855E-04 2.36483E-04
 -1       165-6.22322E-09-6.17508E-04 3.02175E-04
 -1       166-2.40967E-06-9.61355E-04 3.36430E-04
 -1       167-9.92410E-09-9.65376E-04 3.37098E-04
 -1       168 2.38981E-06-9.61355E-04 3.36426E-04
 -1       169-1.37657E-08-1.32425E-03 3.37183E-04
 -1       170 6.47062E-06-1.69747E-03 3.15264E-04
 -1       171-1.73591E-08-1.68773E-03 3.15118E-04
 -1       172-6.50538E-06-1.69747E-03 3.15261E-04
 -1       173-2.04917E-08-1.98563E-03 2.33942E-04
 -1       174 1.54093E-05-2.18586E-03 1.11173E-04
 -1       175-2.25159E-08-2.21677E-03 1.11199E-04
 -1       176-1.54544E-05-2.18586E-03 1.11171E-04
 -1       177-2.35937E-08-2.21432E-03 8.14406E-06
 -1       178-4.86776E-07-2.39127E-03 2.83301E-05
 -1       179-2.24328E-08-2.27324E-03 3.88155E-05
 -1       180 4.41380E-07-2.39127E-03 2.83324E-05
 -1       181-2.00177E-08-2.19362E-03-4.33715E-05
 -1       182 5.32331E-06-1.80118E-03-2.76814E-04
 -1       183-1.35945E-08-2.27305E-03-2.88743E-04
 -1       184-5.35107E-06-1.80118E-03-2.76808E-04
 -1       190-6.92395E-08-7.47385E-05-1.54274E-07
 -1       191 9.89416E-06-2.96143E-04 1.09389E-04
 -1       192-8.74112E-08-2.99216E-04-2.78101E-07
 -1       193-9.97144E-06-2.96133E-04-1.10044E-04
 -1       194 7.44317E-09-6.00245E-04-5.34530E-07
 -1       195 1.88720E-06-9.60880E-04 1.63129E-04
 -1       196-6.08155E-08-9.58636E-04-7.02189E-07
 -1       197-2.01557E-06-9.60722E-04-1.64420E-04
 -1       198-1.70515E-07-1.33319E-03-8.80732E-07
 -1       199-5.05014E-06-1.68775E-03 1.43943E-04
 -1       200-5.32365E-07-1.68779E-03-5.02097E-07
 -1       201 4.93447E-06-1.68715E-03-1.45871E-04
 -1       202 8.04528E-07-2.02099E-03-1.21157E-06
 -1       203-2.17778E-05-2.24389E-03 6.38416E-05
 -1       204 1.19505E-06-2.21234E-03-2.33892E-06
 -1       205 2.19372E-05-2.24164E-03-6.68348E-05
 -1       206-2.53988E-06-2.26727E-03-2.25140E-06
 -1       207 2.56284E-05-2.14654E-03-6.52100E-06
 -1       208-7.96425E-06-2.15743E-03-2.56162E-07
 -1       209-2.52317E-05-2.15275E-03 2.04716E-06
 -1       210 1.17801E-05-2.31070E-03 1.00609E-06
 -1       211-1.26717E-04-2.38698E-03-1.32020E-04
 -1       212 1.12516E-05-2.02434E-03-1.98381E-06
 -1       213 1.26115E-04-2.36373E-03 1.27539E-04
 -1       219-9.42296E-10-9.09619E-05-1.36536E-07
 -1       220-3.20039E-09-3.08021E-04-1.13557E-04
 -1       221-4.25006E-08-3.09962E-04-3.47871E-07
 -1       222-3.22500E-09-3.10365E-04-3.62838E-07
 -1       223 3.61237E-08-3.09962E-04-3.45543E-07
 -1       224-3.22023E-09-3.07891E-04 1.12892E-04
 -1       225-6.26173E-09-6.07914E-04-4.89303E-07
 -1       226-9.88838E-09-9.63999E-04-1.66987E-04
 -1       227-4.53571E-08-9.57241E-04-6.57994E-07
 -1       228-9.92700E-09-9.59478E-04-8.05005E-07
 -1       229 2.55379E-08-9.57241E-04-6.54631E-07
 -1       230-9.92821E-09-9.63840E-04 1.65538E-04
 -1       231-1.36639E-08-1.33276E-03-7.14887E-07
 -1       232-1.72330E-08-1.68058E-03-1.49352E-04
 -1       233-2.23523E-07-1.68964E-03-1.21120E-06
 -1       234-1.72706E-08-1.67915E-03-1.33583E-06
 -1       235 1.89073E-07-1.68964E-03-1.20824E-06
 -1       236-1.72914E-08-1.67895E-03 1.47226E-04
 -1       237-2.02415E-08-2.00603E-03-8.92041E-07
 -1       238-2.23621E-08-2.23458E-03-6.61773E-05
 -1       239 5.17833E-07-2.16508E-03-1.37740E-06
 -1       240-2.24061E-08-2.18823E-03-1.90210E-06
 -1       241-5.62418E-07-2.16508E-03-1.37632E-06
 -1       242-2.24259E-08-2.23099E-03 6.27803E-05
 -1       243-2.31248E-08-2.26972E-03-2.03280E-06
 -1       244-2.22475E-08-2.14082E-03-3.59499E-06
 -1       245-3.14271E-06-2.27973E-03-2.49137E-06
 -1       246-2.24518E-08-2.16731E-03-1.89240E-06
 -1       247 3.09805E-06-2.27973E-03-2.49348E-06
 -1       248-2.23190E-08-2.13291E-03 6.59645E-07
 -1       249-1.94055E-08-2.26063E-03-1.30179E-06
 -1       250-1.46078E-08-2.39562E-03 1.25216E-04
 -1       251 2.71441E-06-1.51615E-03-9.98215E-07
 -1       252-1.52262E-08-1.91984E-03-1.46173E-06
 -1       253-2.74347E-06-1.51615E-03-1.00555E-06
 -1       254-1.44906E-08-2.42677E-03-1.32734E-04
 -3
    1PSTEP                         2           2           1          
  100CL  102 4.00000E-02         201                     1    2           1
 -4  DISP        4    1
 -5  D1          1    2    1    0
 -5  D2          1    2    2    0
 -5  D3          1    2    3    0
 -5  ALL         1    2    0    0    1ALL
 -1         1 0.00000E+00 0.00000E+00 0.00000E+00
 -1         2 0.00000E+00 0.00000E+00 0.00000E+00
 -1         3 0.00000E+00 0.00000E+00 0.00000E+00
 -1         4 0.00000E+00 0.00000E+00 0.00000E+00
 -1         9 0.00000E+00 0.00000E+00 0.00000E+00
 -1        10 0.00000E+00 0.00000E+00 0.00000E+00
 -1        11 0.00000E+00 0.00000E+00 0.00000E+00
 -1        12 0.00000E+00 0.00000E+00 0.00000E+00
 -1        13 0.00000E+00 0.00000E+00 0.00000E+00
 -1        14 0.00000E+00 0.00000E+00 0.00000E+00
 -1        15 0.00000E+00 0.00000E+00 0.00000E+00
 -1        16 0.00000E+00 0.00000E+00 0.00000E+00
 -1        17 0.00000E+00 0.00000E+00 0.00000E+00
 -1        18 0.00000E+00 0.00000E+00 0.00000E+00
 -1        19 0.00000E+00 0.00000E+00 0.00000E+00
 -1        20 0.00000E+00 0.00000E+00 0.00000E+00
 -1        33-3.19959E-05 7.91795E-05 1.03012E-04
 -1        34-1.54820E-05 2.44820E-04 1.87743E-04
 -1        35-1.27477E-05 4.92606E-04 2.42743E-04
 -1        36-4.50093E-06 7.74371E-04 2.70080E-04
 -1        37 4.33197E-06 1.07193E-03 2.71863E-04
 -1        38 1.35372E-05 1.36760E-03 2.50287E-04
 -1        39 2.06794E-05 1.60899E-03 1.85249E-04
 -1        40 1.39313E-05 1.78343E-03 9.25144E-05
 -1        41 3.54318E-05 1.81772E-03 2.07624E-05
 -1        42 4.52916E-05 1.87128E-03 1.09164E-05
 -1        43-4.06405E-05 1.69706E-03-7.84594E-05
 -1        44-1.56497E-04 1.60478E-03-2.33892E-04
 -1        51 1.56626E-04 1.60470E-03-2.33900E-04
 -1        52 4.07306E-05 1.69697E-03-7.84790E-05
 -1        53-4.52125E-05 1.87127E-03 1.09028E-05
 -1        54-3.53694E-05 1.81768E-03 2.07595E-05
 -1        55-1.38603E-05 1.78341E-03 9.25254E-05
 -1        56-2.06228E-05 1.60895E-03 1.85253E-04
 -1        57-1.34882E-05 1.36759E-03 2.50292E-04
 -1        58-4.29457E-06 1.07191E-03 2.71868E-04
 -1        59 4.53063E-06 7.74358E-04 2.70086E-04
 -1        60 1.27675E-05 4.92594E-04 2.42747E-04
 -1        61 1.54938E-05 2.44813E-04 1.87747E-04
 -1        62 3.20006E-05 7.91764E-05 1.03013E-04
 -1        63 3.19920E-05 7.91699E-05-1.02995E-04
 -1        64 1.54840E-05 2.44817E-04-1.87707E-04
 -1        65 1.27385E-05 4.92610E-04-2.42691E-04
 -1        66 4.50644E-06 7.74407E-04-2.70011E-04
 -1        67-4.28192E-06 1.07185E-03-2.71777E-04
 -1        68-1.34593E-05 1.36757E-03-2.50155E-04
 -1        69-2.08634E-05 1.60918E-03-1.85109E-04
 -1        70-1.42183E-05 1.78407E-03-9.23881E-05
 -1        71-3.45110E-05 1.81649E-03-2.06019E-05
 -1        72-4.36225E-05 1.86907E-03-1.05173E-05
 -1        73 3.66659E-05 1.70188E-03 7.89007E-05
 -1        74 1.50247E-04 1.61429E-03 2.34120E-04
 -1        78-3.19940E-05 7.91656E-05-1.02993E-04