    1C
    1UUSER                                                              
    1UDATE              12.july.2018                                    
    1UTIME              16:07:12                                        
    1UHOST                                                              
    1UPGM               CalculiX                                        
    1UVERSION           Version 2.13                             
    1UCOMPILETIME       jue jun 14 00:40:39 CEST 2018                    
    1UDIR                                                               
    1UDBN                                                               
    1UMAT    1EL                                                        
    2C                           201                                     1
 -1         1 0.00000E+00 0.00000E+00 0.00000E+00
 -1         2 1.00000E+00 0.00000E+00 0.00000E+00
 -1         3 1.00000E+00 1.00000E+00 0.00000E+00
 -1         4 0.00000E+00 1.00000E+00 0.00000E+00
 -1         9 2.50000E-01 0.00000E+00 0.00000E+00
 -1        10 5.00000E-01 0.00000E+00 0.00000E+00
 -1        11 7.50000E-01 0.00000E+00 0.00000E+00
 -1        12 1.00000E+00 2.50000E-01 0.00000E+00
 -1        13 1.00000E+00 5.00000E-01 0.00000E+00
 -1        14 1.00000E+00 7.50000E-01 0.00000E+00
 -1        15 7.50000E-01 1.00000E+00 0.00000E+00
 -1        16 5.00000E-01 1.00000E+00 0.00000E+00
 -1        17 2.50000E-01 1.00000E+00 0.00000E+00
 -1        18 0.00000E+00 7.50000E-01 0.00000E+00
 -1        19 0.00000E+00 5.00000E-01 0.00000E+00
 -1        20 0.00000E+00 2.50000E-01 0.00000E+00
 -1        33 1.00000E+00 0.00000E+00 5.00000E-01
 -1        34 1.00000E+00 0.00000E+00 1.00000E+00
 -1        35 1.00000E+00 0.00000E+00 1.50000E+00
 -1        36 1.00000E+00 0.00000E+00 2.00000E+00
 -1        37 1.00000E+00 0.00000E+00 2.50000E+00
 -1        38 1.00000E+00 0.00000E+00 3.00000E+00
 -1        39 1.00000E+00 0.00000E+00 3.50000E+00
 -1        40 1.00000E+00 0.00000E+00 4.00000E+00
 -1        41 1.00000E+00 0.00000E+00 4.50000E+00
 -1        42 1.00000E+00 0.00000E+00 5.00000E+00
 -1        43 1.00000E+00 0.00000E+00 5.50000E+00
 -1        44 1.00000E+00 0.00000E+00 6.00000E+00
 -1        51 0.00000E+00 0.00000E+00 6.00000E+00
 -1        52 0.00000E+00 0.00000E+00 5.50000E+00
 -1        53 0.00000E+00 0.00000E+00 5.00000E+00
 -1        54 0.00000E+00 0.00000E+00 4.50000E+00
 -1        55 0.00000E+00 0.00000E+00 4.00000E+00
 -1        56 0.00000E+00 0.00000E+00 3.50000E+00
 -1        57 0.00000E+00 0.00000E+00 3.00000E+00
 -1        58 0.00000E+00 0.00000E+00 2.50000E+00
 -1        59 0.00000E+00 0.00000E+00 2.00000E+00
 -1        60 0.00000E+00 0.00000E+00 1.50000E+00
 -1        61 0.00000E+00 0.00000E+00 1.00000E+00
 -1        62 0.00000E+00 0.00000E+00 5.00000E-01
 -1        63 1.00000E+00 1.00000E+00 5.00000E-01
 -1        64 1.00000E+00 1.00000E+00 1.00000E+00
 -1        65 1.00000E+00 1.00000E+00 1.50000E+00
 -1        66 1.00000E+00 1.00000E+00 2.00000E+00
 -1        67 1.00000E+00 1.00000E+00 2.50000E+00
 -1        68 1.00000E+00 1.00000E+00 3.00000E+00
 -1        69 1.00000E+00 1.00000E+00 3.50000E+00
 -1        70 1.00000E+00 1.00000E+00 4.00000E+00
 -1        71 1.00000E+00 1.00000E+00 4.50000E+00
 -1        72 1.00000E+00 1.00000E+00 5.00000E+00
 -1        73 1.00000E+00 1.00000E+00 5.50000E+00
 -1        74 1.00000E+00 1.00000E+00 6.00000E+00
 -1        78 0.00000E+00 1.00000E+00 5.00000E-01
 -1        79 0.00000E+00 1.00000E+00 1.00000E+00
 -1        80 0.00000E+00 1.00000E+00 1.50000E+00
 -1        81 0.00000E+00 1.00000E+00 2.00000E+00
 -1        82 0.00000E+00 1.00000E+00 2.50000E+00
 -1        83 0.00000E+00 1.00000E+00 3.00000E+00
 -1        84 0.00000E+00 1.00000E+00 3.50000E+00
 -1        85 0.00000E+00 1.00000E+00 4.00000E+00
 -1        86 0.00000E+00 1.00000E+00 4.50000E+00
 -1        87 0.00000E+00 1.00000E+00 5.00000E+00
 -1        88 0.00000E+00 1.00000E+00 5.50000E+00
 -1        89 0.00000E+00 1.00000E+00 6.00000E+00
 -1        93 5.00000E-01 2.50000E-01 0.00000E+00
 -1        94 2.50000E-01 5.00000E-01 0.00000E+00
 -1        95 5.00000E-01 5.00000E-01 0.00000E+00
 -1        96 7.50000E-01 5.00000E-01 0.00000E+00
 -1        97 5.00000E-01 7.50000E-01 0.00000E+00
 -1       103 5.00000E-01 0.00000E+00 5.00000E-01
 -1       104 2.50000E-01 0.00000E+00 1.00000E+00
 -1       105 5.00000E-01 0.00000E+00 1.00000E+00
 -1       106 7.50000E-01 0.00000E+00 1.00000E+00
 -1       107 5.00000E-01 0.00000E+00 1.50000E+00
 -1       108 2.50000E-01 0.00000E+00 2.00000E+00
 -1       109 5.00000E-01 0.00000E+00 2.00000E+00
 -1       110 7.50000E-01 0.00000E+00 2.00000E+00
 -1       111 5.00000E-01 0.00000E+00 2.50000E+00
 -1       112 2.50000E-01 0.00000E+00 3.00000E+00
 -1       113 5.00000E-01 0.00000E+00 3.00000E+00
 -1       114 7.50000E-01 0.00000E+00 3.00000E+00
 -1       115 5.00000E-01 0.00000E+00 3.50000E+00
 -1       116 2.50000E-01 0.00000E+00 4.00000E+00
 -1       117 5.00000E-01 0.00000E+00 4.00000E+00
 -1       118 7.50000E-01 0.00000E+00 4.00000E+00
 -1       119 5.00000E-01 0.00000E+00 4.50000E+00
 -1       120 2.50000E-01 0.00000E+00 5.00000E+00
 -1       121 5.00000E-01 0.00000E+00 5.00000E+00
 -1       122 7.50000E-01 0.00000E+00 5.00000E+00
 -1       123 5.00000E-01 0.00000E+00 5.50000E+00
 -1       124 2.50000E-01 0.00000E+00 6.00000E+00
 -1       125 5.00000E-01 0.00000E+00 6.00000E+00
 -1       126 7.50000E-01 0.00000E+00 6.00000E+00
 -1       132 1.00000E+00 5.00000E-01 5.00000E-01
 -1       133 1.00000E+00 2.50000E-01 1.00000E+00
 -1       134 1.00000E+00 5.00000E-01 1.00000E+00
 -1       135 1.00000E+00 7.50000E-01 1.00000E+00
 -1       136 1.00000E+00 5.00000E-01 1.50000E+00
 -1       137 1.00000E+00 2.50000E-01 2.00000E+00
 -1       138 1.00000E+00 5.00000E-01 2.00000E+00
 -1       139 1.00000E+00 7.50000E-01 2.00000E+00
 -1       140 1.00000E+00 5.00000E-01 2.50000E+00
 -1       141 1.00000E+00 2.50000E-01 3.00000E+00
 -1       142 1.00000E+00 5.00000E-01 3.00000E+00
 -1       143 1.00000E+00 7.50000E-01 3.00000E+00
 -1       144 1.00000E+00 5.00000E-01 3.50000E+00
 -1       145 1.00000E+00 2.50000E-01 4.00000E+00
 -1       146 1.00000E+00 5.00000E-01 4.00000E+00
 -1       147 1.00000E+00 7.50000E-01 4.00000E+00
 -1       148 1.00000E+00 5.00000E-01 4.50000E+00
 -1       149 1.00000E+00 2.50000E-01 5.00000E+00
 -1       150 1.00000E+00 5.00000E-01 5.00000E+00
 -1       151 1.00000E+00 7.50000E-01 5.00000E+00
 -1       152 1.00000E+00 5.00000E-01 5.50000E+00
 -1       153 1.00000E+00 2.50000E-01 6.00000E+00
 -1       154 1.00000E+00 5.00000E-01 6.00000E+00
 -1       155 1.00000E+00 7.50000E-01 6.00000E+00
 -1       161 5.00000E-01 1.00000E+00 5.00000E-01
 -1       162 7.50000E-01 1.00000E+00 1.00000E+00
 -1       163 5.00000E-01 1.00000E+00 1.00000E+00
 -1       164 2.50000E-01 1.00000E+00 1.00000E+00
 -1       165 5.00000E-01 1.00000E+00 1.50000E+00
 -1       166 7.50000E-01 1.00000E+00 2.00000E+00
 -1       167 5.00000E-01 1.00000E+00 2.00000E+00
 -1       168 2.50000E-01 1.00000E+00 2.00000E+00
 -1       169 5.00000E-01 1.00000E+00 2.50000E+00
 -1       170 7.50000E-01 1.00000E+00 3.00000E+00
 -1       171 5.00000E-01 1.00000E+00 3.00000E+00
 -1       172 2.50000E-01 1.00000E+00 3.00000E+00
 -1       173 5.00000E-01 1.00000E+00 3.50000E+00
 -1       174 7.50000E-01 1.00000E+00 4.00000E+00
 -1       175 5.00000E-01 1.00000E+00 4.00000E+00
 -1       176 2.50000E-01 1.00000E+00 4.00000E+00
 -1       177 5.00000E-01 1.00000E+00 4.50000E+00
 -1       178 7.50000E-01 1.00000E+00 5.00000E+00
 -1       179 5.00000E-01 1.00000E+00 5.00000E+00
 -1       180 2.50000E-01 1.00000E+00 5.00000E+00
 -1       181 5.00000E-01 1.00000E+00 5.50000E+00
 -1       182 7.50000E-01 1.00000E+00 6.00000E+00
 -1       183 5.00000E-01 1.00000E+00 6.00000E+00
 -1       184 2.50000E-01 1.00000E+00 6.00000E+00
 -1       190 0.00000E+00 5.00000E-01 5.00000E-01
 -1       191 0.00000E+00 7.50000E-01 1.00000E+00
 -1       192 0.00000E+00 5.00000E-01 1.00000E+00
 -1       193 0.00000E+00 2.50000E-01 1.00000E+00
 -1       194 0.00000E+00 5.00000E-01 1.50000E+00
 -1       195 0.00000E+00 7.50000E-01 2.00000E+00
 -1       196 0.00000E+00 5.00000E-01 2.00000E+00
 -1       197 0.00000E+00 2.50000E-01 2.00000E+00
 -1       198 0.00000E+00 5.00000E-01 2.50000E+00
 -1       199 0.00000E+00 7.50000E-01 3.00000E+00
 -1       200 0.00000E+00 5.00000E-01 3.00000E+00
 -1       201 0.00000E+00 2.50000E-01 3.00000E+00
 -1       202 0.00000E+00 5.00000E-01 3.50000E+00
 -1       203 0.00000E+00 7.50000E-01 4.00000E+00
 -1       204 0.00000E+00 5.00000E-01 4.00000E+00
 -1       205 0.00000E+00 2.50000E-01 4.00000E+00
 -1       206 0.00000E+00 5.00000E-01 4.50000E+00
 -1       207 0.00000E+00 7.50000E-01 5.00000E+00
 -1       208 0.00000E+00 5.00000E-01 5.00000E+00
 -1       209 0.00000E+00 2.50000E-01 5.00000E+00
 -1       210 0.00000E+00 5.00000E-01 5.50000E+00
 -1       211 0.00000E+00 7.50000E-01 6.00000E+00
 -1       212 0.00000E+00 5.00000E-01 6.00000E+00
 -1       213 0.00000E+00 2.50000E-01 6.00000E+00
 -1       219 5.00000E-01 5.00000E-01 5.00000E-01
 -1       220 5.00000E-01 2.50000E-01 1.00000E+00
 -1       221 2.50000E-01 5.00000E-01 1.00000E+00
 -1       222 5.00000E-01 5.00000E-01 1.00000E+00
 -1       223 7.50000E-01 5.00000E-01 1.00000E+00
 -1       224 5.00000E-01 7.50000E-01 1.00000E+00
 -1       225 5.00000E-01 5.00000E-01 1.50000E+00
 -1       226 5.00000E-01 2.50000E-01 2.00000E+00
 -1       227 2.50000E-01 5.00000E-01 2.00000E+00
 -1       228 5.00000E-01 5.00000E-01 2.00000E+00
 -1       229 7.50000E-01 5.00000E-01 2.00000E+00
 -1       230 5.00000E-01 7.50000E-01 2.00000E+00
 -1       231 5.00000E-01 5.00000E-01 2.50000E+00
 -1       232 5.00000E-01 2.50000E-01 3.00000E+00
 -1       233 2.50000E-01 5.00000E-01 3.00000E+00
 -1       234 5.00000E-01 5.00000E-01 3.00000E+00
 -1       235 7.50000E-01 5.00000E-01 3.00000E+00
 -1       236 5.00000E-01 7.50000E-01 3.00000E+00
 -1       237 5.00000E-01 5.00000E-01 3.50000E+00
 -1       238 5.00000E-01 2.50000E-01 4.00000E+00
 -1       239 2.50000E-01 5.00000E-01 4.00000E+00
 -1       240 5.00000E-01 5.00000E-01 4.00000E+00
 -1       241 7.50000E-01 5.00000E-01 4.00000E+00
 -1       242 5.00000E-01 7.50000E-01 4.00000E+00
 -1       243 5.00000E-01 5.00000E-01 4.50000E+00
 -1       244 5.00000E-01 2.50000E-01 5.00000E+00
 -1       245 2.50000E-01 5.00000E-01 5.00000E+00
 -1       246 5.00000E-01 5.00000E-01 5.00000E+00
 -1       247 7.50000E-01 5.00000E-01 5.00000E+00
 -1       248 5.00000E-01 7.50000E-01 5.00000E+00
 -1       249 5.00000E-01 5.00000E-01 5.50000E+00
 -1       250 5.00000E-01 2.50000E-01 6.00000E+00
 -1       251 2.50000E-01 5.00000E-01 6.00000E+00
 -1       252 5.00000E-01 5.00000E-01 6.00000E+00
 -1       253 7.50000E-01 5.00000E-01 6.00000E+00
 -1       254 5.00000E-01 7.50000E-01 6.00000E+00
 -3
    3C                            24                                     1
 -1         1    4    0    1
 -2         1        10        95        19        61       105       222       192         9        93
 -2        94        20        62       103       219       190       104       220       221       193
 -1         2    4    0    1
 -2        10         2        13        95       105        34       134       222        11        12
 -2        96        93       103        33       132       219       106       133       223       220
 -1         3    4    0    1
 -2        19        95        16         4       192       222       163        79        94        97
 -2        17        18       190       219       161        78       221       224       164       191
 -1         4    4    0    1
 -2        95        13         3        16       222       134        64       163        96        14
 -2        15        97       219       132        63       161       223       135       162       224
 -1         5    4    0    1
 -2        61       105       222       192        59       109       228       196       104       220
 -2       221       193        60       107       225       194       108       226       227       197
 -1         6    4    0    1
 -2       105        34       134       222       109        36       138       228       106       133
 -2       223       220       107        35       136       225       110       137       229       226
 -1         7    4    0    1
 -2       192       222       163        79       196       228       167        81       221       224
 -2       164       191       194       225       165        80       227       230       168       195
 -1         8    4    0    1
 -2       222       134        64       163       228       138        66       167       223       135
 -2       162       224       225       136        65       165       229       139       166       230
 -1         9    4    0    1
 -2        59       109       228       196        57       113       234       200       108       226
 -2       227       197        58       111       231       198       112       232       233       201
 -1        10    4    0    1
 -2       109        36       138       228       113        38       142       234       110       137
 -2       229       226       111        37       140       231       114       141       235       232
 -1        11    4    0    1
 -2       196       228       167        81       200       234       171        83       227       230
 -2       168       195       198       231       169        82       233       236       172       199
 -1        12    4    0    1
 -2       228       138        66       167       234       142        68       171       229       139
 -2       166       230       231       140        67       169       235       143       170       236
 -1        13    4    0    1
 -2        57       113       234       200        55       117       240       204       112       232
 -2       233       201        56       115       237       202       116       238       239       205
 -1        14    4    0    1
 -2       113        38       142       234       117        40       146       240       114       141
 -2       235       232       115        39       144       237       118       145       241       238
 -1        15    4    0    1
 -2       200       234       171        83       204       240       175        85       233       236
 -2       172       199       202       237       173        84       239       242       176       203
 -1        16    4    0    1
 -2       234       142        68       171       240       146        70       175       235       143
 -2       170       236       237       144        69       173       241       147       174       242
 -1        17    4    0    1
 -2        55       117       240       204        53       121       246       208       116       238
 -2       239       205        54       119       243       206       120       244       245       209
 -1        18    4    0    1
 -2       117        40       146       240       121        42       150       246       118       145
 -2       241       238       119        41       148       243       122       149       247       244
 -1        19    4    0    1
 -2       204       240       175        85       208       246       179        87       239       242
 -2       176       203       206       243       177        86       245       248       180       207
 -1        20    4    0    1
 -2       240       146        70       175       246       150        72       179       241       147
 -2       174       242       243       148        71       177       247       151       178       248
 -1        21    4    0    1
 -2        53       121       246       208        51       125       252       212       120       244
 -2       245       209        52       123       249       210       124       250       251       213
 -1        22    4    0    1
 -2       121        42       150       246       125        44       154       252       122       149
 -2       247       244       123        43       152       249       126       153       253       250
 -1        23    4    0    1
 -2       208       246       179        87       212       252       183        89       245       248
 -2       180       207       210       249       181        88       251       254       184       211
 -1        24    4    0    1
 -2       246       150        72       179       252       154        74       183       247       151
 -2       178       248       249       152        73       181       253       155       182       254
 -3
    1PSTEP                         1           1           1          
  100CL  101 2.00000E-02         201                     1    1           1
 -4  DISP        4    1
 -5  D1          1    2    1    0
 -5  D2          1    2    2    0
 -5  D3          1    2    3    0
 -5  ALL         1    2    0    0    1ALL
 -1         1 0.00000E+00 0.00000E+00 0.00000E+00
 -1         2 0.00000E+00 0.00000E+00 0.00000E+00
 -1         3 0.00000E+00 0.00000E+00 0.00000E+00
 -1         4 0.00000E+00 0.00000E+00 0.00000E+00
 -1         9 0.00000E+00 0.00000E+00 0.00000E+00
 -1        10 0.00000E+00 0.00000E+00 0.00000E+00
 -1        11 0.00000E+00 0.00000E+00 0.00000E+00
 -1        12 0.00000E+00 0.00000E+00 0.00000E+00
 -1        13 0.00000E+00 0.00000E+00 0.00000E+00
 -1        14 0.00000E+00 0.00000E+00 0.00000E+00
 -1        15 0.00000E+00 0.00000E+00 0.00000E+00
 -1        16 0.00000E+00 0.00000E+00 0.00000E+00
 -1        17 0.00000E+00 0.00000E+00 0.00000E+00
 -1        18 0.00000E+00 0.00000E+00 0.00000E+00
 -1        19 0.00000E+00 0.00000E+00 0.00000E+00
 -1        20 0.00000E+00 0.00000E+00 0.00000E+00
 -1        33 3.96195E-05-9.78011E-05-1.27495E-04
 -1        34 1.92504E-05-3.02941E-04-2.32639E-04
 -1        35 1.57864E-05-6.08729E-04-3.00492E-04
 -1        36 5.59251E-06-9.58220E-04-3.34831E-04
 -1        37-4.98918E-06-1.32435E-03-3.37373E-04
 -1        38-1.61503E-05-1.69274E-03-3.12644E-04
 -1        39-2.61099E-05-1.98970E-03-2.29434E-04
 -1        40-1.95665E-05-2.21019E-03-1.17798E-04
 -1        41-3.88059E-05-2.24258E-03-2.93754E-05
 -1        42-5.47912E-05-2.32673E-03-3.07465E-05
 -1        43 4.85017E-05-2.10243E-03 1.02836E-04
 -1        44 1.46903E-04-1.99826E-03 2.88073E-04
 -1        51-1.46892E-04-1.99824E-03 2.88058E-04
 -1        52-4.84992E-05-2.10243E-03 1.02825E-04
 -1        53 5.48046E-05-2.32672E-03-3.07414E-05
 -1        54 3.88135E-05-2.24258E-03-2.93750E-05
 -1        55 1.95795E-05-2.21019E-03-1.17799E-04
 -1        56 2.61187E-05-1.98970E-03-2.29434E-04
 -1        57 1.61595E-05-1.69274E-03-3.12642E-04
 -1        58 4.99544E-06-1.32435E-03-3.37372E-04
 -1        59-5.58726E-06-9.58219E-04-3.34829E-04
 -1        60-1.57835E-05-6.08728E-04-3.00491E-04
 -1        61-1.92488E-05-3.02940E-04-2.32638E-04
 -1        62-3.96191E-05-9.78008E-05-1.27495E-04
 -1        63-3.94850E-05-9.76224E-05 1.27117E-04
 -1        64-1.92122E-05-3.02880E-04 2.31837E-04
 -1        65-1.55610E-05-6.08653E-04 2.99351E-04
 -1        66-5.57422E-06-9.58791E-04 3.33304E-04
 -1        67 5.05733E-06-1.32347E-03 3.35497E-04
 -1        68 1.56982E-05-1.69289E-03 3.09964E-04
 -1        69 2.74052E-05-1.99046E-03 2.26520E-04
 -1        70 2.13662E-05-2.21832E-03 1.14924E-04
 -1        71 3.49894E-05-2.23194E-03 2.59479E-05
 -1        72 4.13375E-05-2.30368E-03 2.39313E-05
 -1        73-2.69436E-05-2.13865E-03-1.11216E-04
 -1        74-1.28019E-04-2.08107E-03-2.93799E-04
 -1        78 3.94857E-05-9.76226E-05 1.27118E-04
 -1        79 1.92141E-05-3.02879E-04 2.31839E-04
 -1        80 1.55649E-05-6.08653E-04 2.99353E-04
 -1        81 5.57985E-06-9.58790E-04 3.33306E-04
 -1        82-5.04924E-06-1.32347E-03 3.35499E-04
 -1        83-1.56889E-05-1.69289E-03 3.09965E-04
 -1        84-2.73937E-05-1.99046E-03 2.26522E-04
 -1        85-2.13552E-05-2.21831E-03 1.14924E-04
 -1        86-3.49758E-05-2.23194E-03 2.59468E-05
 -1        87-4.13284E-05-2.30367E-03 2.39225E-05
 -1        88 2.69538E-05-2.13865E-03-1.11212E-04
 -1        89 1.28024E-04-2.08107E-03-2.93809E-04
 -1        93 0.00000E+00 0.00000E+00 0.00000E+00
 -1        94 0.00000E+00 0.00000E+00 0.00000E+00
 -1        95 0.00000E+00 0.00000E+00 0.00000E+00
 -1        96 0.00000E+00 0.00000E+00 0.00000E+00
 -1        97 0.00000E+00 0.00000E+00 0.00000E+00
 -1       103 1.67619E-10-1.14392E-04-1.25093E-04
 -1       104-9.63173E-06-3.14087E-04-2.36529E-04
 -1       105 6.57112E-10-3.15342E-04-2.38022E-04
 -1       106 9.63317E-06-3.14088E-04-2.36530E-04
 -1       107 1.54403E-09-6.16017E-04-3.02448E-04
 -1       108-2.18212E-06-9.58934E-04-3.36891E-04
 -1       109 2.21556E-09-9.62366E-04-3.37046E-04
 -1       110 2.18695E-06-9.58935E-04-3.36892E-04
 -1       111 3.44759E-09-1.32094E-03-3.38225E-04
 -1       112 5.76947E-06-1.69295E-03-3.16448E-04
 -1       113 3.63874E-09-1.68412E-03-3.16383E-04
 -1       114-5.76118E-06-1.69296E-03-3.16449E-04
 -1       115 5.09167E-09-1.97925E-03-2.36632E-04
 -1       116 1.85312E-05-2.18469E-03-1.13801E-04
 -1       117 4.10797E-09-2.21519E-03-1.09612E-04
 -1       118-1.85206E-05-2.18469E-03-1.13802E-04
 -1       119 5.77467E-09-2.21323E-03-1.18790E-05
 -1       120-5.54948E-06-2.37841E-03-3.30385E-05
 -1       121 1.46250E-09-2.27707E-03-4.41439E-05
 -1       122 5.55783E-06-2.37841E-03-3.30388E-05
 -1       123 3.86107E-09-2.17467E-03 2.22143E-05
 -1       124 4.65605E-05-1.82992E-03 2.69373E-04
 -1       125-7.39382E-09-2.21952E-03 2.85757E-04
 -1       126-4.65627E-05-1.82993E-03 2.69370E-04
 -1       132 7.71334E-08-7.45866E-05-1.78459E-07
 -1       133 9.95416E-06-2.95330E-04-1.09805E-04
 -1       134 9.19224E-08-2.98122E-04-3.28346E-07
 -1       135-9.86955E-06-2.95337E-04 1.09054E-04
 -1       136-3.72543E-09-5.98827E-04-6.04970E-07
 -1       137 2.08301E-06-9.58077E-04-1.64204E-04
 -1       138 5.77969E-08-9.55100E-04-7.99581E-07
 -1       139-1.94762E-06-9.58213E-04 1.62707E-04
 -1       140 1.68464E-07-1.33000E-03-1.01700E-06
 -1       141-5.12076E-06-1.68200E-03-1.45649E-04
 -1       142 5.26058E-07-1.68082E-03-6.67290E-07
 -1       143 5.20334E-06-1.68265E-03 1.43434E-04
 -1       144-8.02288E-07-2.01687E-03-1.35747E-06
 -1       145-2.14586E-05-2.23465E-03-6.81423E-05
 -1       146-1.26991E-06-2.19887E-03-2.55021E-06
 -1       147 2.13670E-05-2.23663E-03 6.46746E-05
 -1       148 2.53714E-06-2.26431E-03-2.53027E-06
 -1       149 1.98176E-05-2.13517E-03 8.92679E-07
 -1       150 7.79516E-06-2.13164E-03-5.48131E-07
 -1       151-2.07671E-05-2.12993E-03-5.77440E-06
 -1       152-1.15300E-05-2.31840E-03 9.83620E-07
 -1       153-1.15485E-04-2.33380E-03 1.24733E-04
 -1       154-1.34115E-05-1.94125E-03-1.95779E-06
 -1       155 1.16545E-04-2.35332E-03-1.29643E-04
 -1       161 2.75419E-10-1.14262E-04 1.24691E-04
 -1       162-9.59604E-06-3.14010E-04 2.35780E-04
 -1       163 1.01056E-09-3.15099E-04 2.37232E-04
 -1       164 9.59797E-06-3.14010E-04 2.35781E-04
 -1       165 1.85687E-09-6.15998E-04 3.01333E-04
 -1       166-2.25019E-06-9.58679E-04 3.35354E-04
 -1       167 3.01294E-09-9.61945E-04 3.35805E-04
 -1       168 2.25602E-06-9.58679E-04 3.35355E-04
 -1       169 3.89877E-09-1.32103E-03 3.35993E-04
 -1       170 5.86271E-06-1.69288E-03 3.14178E-04
 -1       171 5.14377E-09-1.68121E-03 3.13571E-04
 -1       172-5.85289E-06-1.69288E-03 3.14178E-04
 -1       173 5.58883E-09-1.98108E-03 2.33970E-04
 -1       174 1.81399E-05-2.17930E-03 1.10360E-04
 -1       175 6.70747E-09-2.20717E-03 1.08208E-04
 -1       176-1.81276E-05-2.17930E-03 1.10359E-04
 -1       177 5.73383E-09-2.20957E-03 6.95570E-06
 -1       178-7.74562E-06-2.38675E-03 2.80916E-05
 -1       179 7.53403E-09-2.26052E-03 3.62231E-05
 -1       180 7.75806E-06-2.38675E-03 2.80896E-05
 -1       181 4.51932E-09-2.19218E-03-2.98144E-05
 -1       182 3.94237E-05-1.79518E-03-2.74428E-04
 -1       183 1.31273E-08-2.28785E-03-2.89398E-04
 -1       184-3.94092E-05-1.79519E-03-2.74444E-04
 -1       190-7.64673E-08-7.45865E-05-1.77754E-07
 -1       191 9.87139E-06-2.95336E-04 1.09056E-04
 -1       192-9.01735E-08-2.98122E-04-3.27039E-07
 -1       193-9.95245E-06-2.95330E-04-1.09804E-04
 -1       194 7.20869E-09-5.98827E-04-6.03329E-07
 -1       195 1.95306E-06-9.58213E-04 1.62709E-04
 -1       196-5.25780E-08-9.55100E-04-7.97831E-07
 -1       197-2.07780E-06-9.58076E-04-1.64202E-04
 -1       198-1.61163E-07-1.33000E-03-1.01529E-06
 -1       199-5.19439E-06-1.68265E-03 1.43436E-04
 -1       200-5.17347E-07-1.68082E-03-6.65836E-07
 -1       201 5.12979E-06-1.68200E-03-1.45647E-04
 -1       202 8.12737E-07-2.01687E-03-1.35656E-06
 -1       203-2.13561E-05-2.23663E-03 6.46744E-05
 -1       204 1.28038E-06-2.19887E-03-2.55014E-06
 -1       205 2.14700E-05-2.23465E-03-6.81413E-05
 -1       206-2.52577E-06-2.26431E-03-2.53089E-06
 -1       207 2.07753E-05-2.12993E-03-5.77708E-06
 -1       208-7.78665E-06-2.13165E-03-5.48188E-07
 -1       209-1.98058E-05-2.13517E-03 8.90936E-07
 -1       210 1.15383E-05-2.31840E-03 9.79626E-07
 -1       211-1.16540E-04-2.35333E-03-1.29657E-04
 -1       212 1.34130E-05-1.94127E-03-1.95552E-06
 -1       213 1.15488E-04-2.33381E-03 1.24744E-04
 -1       219 2.60042E-10-9.06818E-05-1.60048E-07
 -1       220 7.91837E-10-3.07192E-04-1.13277E-04
 -1       221-4.27293E-08-3.09106E-04-3.97345E-07
 -1       222 9.00231E-10-3.09791E-04-4.16648E-07
 -1       223 4.44761E-08-3.09106E-04-3.97965E-07
 -1       224 9.68022E-10-3.07055E-04 1.12511E-04
 -1       225 1.68796E-09-6.06000E-04-5.64602E-07
 -1       226 2.45765E-09-9.61264E-04-1.66450E-04
 -1       227-3.20763E-08-9.54517E-04-7.58281E-07
 -1       228 2.70601E-09-9.57490E-04-8.96905E-07
 -1       229 3.73961E-08-9.54517E-04-7.59130E-07
 -1       230 2.86020E-09-9.61100E-04 1.64792E-04
 -1       231 3.60052E-09-1.32859E-03-8.47787E-07
 -1       232 4.13066E-09-1.67621E-03-1.49021E-04
 -1       233-2.12586E-07-1.68472E-03-1.36564E-06
 -1       234 4.61552E-09-1.67659E-03-1.51870E-06
 -1       235 2.21561E-07-1.68472E-03-1.36635E-06
 -1       236 4.86397E-09-1.67456E-03 1.46595E-04
 -1       237 5.10431E-09-1.99843E-03-1.06618E-06
 -1       238 4.89189E-09-2.22826E-03-6.44595E-05
 -1       239 5.91864E-07-2.15818E-03-1.56647E-06
 -1       240 5.75137E-09-2.18666E-03-1.96532E-06
 -1       241-5.80816E-07-2.15817E-03-1.56648E-06
 -1       242 6.25252E-09-2.22471E-03 6.06175E-05
 -1       243 5.47467E-09-2.26035E-03-2.30595E-06
 -1       244 3.46471E-09-2.14436E-03-3.99596E-06
 -1       245-3.04553E-06-2.27115E-03-2.75296E-06
 -1       246 5.48205E-09-2.18071E-03-2.32739E-06
 -1       247 3.05520E-06-2.27114E-03-2.75295E-06
 -1       248 6.39690E-09-2.13618E-03 7.77931E-07
 -1       249 3.51866E-09-2.23683E-03-1.62879E-06
 -1       250-3.18572E-09-2.41580E-03 1.26909E-04
 -1       251 3.64934E-06-1.51012E-03 1.50188E-07
 -1       252 1.85618E-09-1.97175E-03 1.07319E-06
 -1       253-3.64621E-06-1.51010E-03 1.49261E-07
 -1       254 8.70424E-09-2.44842E-03-1.35716E-04
 -3
    1PSTEP                         2           2           1          
  100CL  102 4.00000E-02         201                     1    2           1
 -4  DISP        4    1
 -5  D1          1    2    1    0
 -5  D2          1    2    2    0
 -5  D3          1    2    3    0
 -5  ALL         1    2    0    0    1ALL
 -1         1 0.00000E+00 0.00000E+00 0.00000E+00
 -1         2 0.00000E+00 0.00000E+00 0.00000E+00
 -1         3 0.00000E+00 0.00000E+00 0.00000E+00
 -1         4 0.00000E+00 0.00000E+00 0.00000E+00
 -1         9 0.00000E+00 0.00000E+00 0.00000E+00
 -1        10 0.00000E+00 0.00000E+00 0.00000E+00
 -1        11 0.00000E+00 0.00000E+00 0.00000E+00
 -1        12 0.00000E+00 0.00000E+00 0.00000E+00
 -1        13 0.00000E+00 0.00000E+00 0.00000E+00
 -1        14 0.00000E+00 0.00000E+00 0.00000E+00
 -1        15 0.00000E+00 0.00000E+00 0.00000E+00
 -1        16 0.00000E+00 0.00000E+00 0.00000E+00
 -1        17 0.00000E+00 0.00000E+00 0.00000E+00
 -1        18 0.00000E+00 0.00000E+00 0.00000E+00
 -1        19 0.00000E+00 0.00000E+00 0.00000E+00
 -1        20 0.00000E+00 0.00000E+00 0.00000E+00
 -1        33-3.18612E-05 7.88121E-05 1.02554E-04
 -1        34-1.54711E-05 2.43773E-04 1.86954E-04
 -1        35-1.27442E-05 4.90236E-04 2.41613E-04
 -1        36-4.54303E-06 7.70892E-04 2.68755E-04
 -1        37 4.13093E-06 1.06656E-03 2.70503E-04
 -1        38 1.29685E-05 1.36143E-03 2.49474E-04
 -1        39 2.06769E-05 1.60059E-03 1.84219E-04
 -1        40 1.50213E-05 1.77554E-03 9.12603E-05
 -1        41 3.34014E-05 1.80605E-03 1.90078E-05
 -1        42 4.06797E-05 1.86280E-03 1.42418E-05
 -1        43-3.47637E-05 1.68787E-03-7.32945E-05
 -1        44-1.21274E-04 1.61212E-03-2.31604E-04
 -1        51 1.21029E-04 1.61202E-03-2.31407E-04
 -1        52 3.43922E-05 1.68788E-03-7.31637E-05
 -1        53-4.11638E-05 1.86278E-03 1.42826E-05
 -1        54-3.38782E-05 1.80606E-03 1.90155E-05
 -1        55-1.55004E-05 1.77553E-03 9.12408E-05
 -1        56-2.11080E-05 1.60059E-03 1.84175E-04
 -1        57-1.33418E-05 1.36142E-03 2.49409E-04
 -1        58-4.42526E-06 1.06655E-03 2.70430E-04
 -1        59 4.32880E-06 7.70887E-04 2.68681E-04
 -1        60 1.26082E-05 4.90230E-04 2.41545E-04
 -1        61 1.54034E-05 2.43766E-04 1.86901E-04
 -1        62 3.18395E-05 7.88023E-05 1.02525E-04
 -1        63 3.18301E-05 7.87587E-05-1.02480E-04
 -1        64 1.54060E-05 2.43716E-04-1.86802E-04
 -1        65 1.25461E-05 4.90309E-04-2.41404E-04
 -1        66 4.28366E-06 7.71122E-04-2.68508E-04
 -1        67-4.30062E-06 1.06614E-03-2.70240E-04
 -1        68-1.29761E-05 1.36063E-03-2.49077E-04
 -1        69-2.18648E-05 1.60197E-03-1.83695E-04
 -1        70-1.64189E-05 1.77920E-03-9.08079E-05
 -1        71-3.14557E-05 1.80018E-03-1.94126E-05
 -1        72-3.29296E-05 1.84796E-03-1.42339E-05
 -1        73 2.15752E-05 1.71048E-03 7.69013E-05
 -1        74 1.07930E-04 1.66183E-03 2.32360E-04
 -1        78-3.18535E-05 7.87668E-05-1.02509E-04