
 displacements (vx,vy,vz) for set NALL and time  0.2000000E-01

         5  0.000000E+00  0.000000E+00  0.000000E+00
         6  0.000000E+00  0.000000E+00  0.000000E+00
         7  0.000000E+00  0.000000E+00  0.000000E+00
         8  0.000000E+00  0.000000E+00  0.000000E+00
        21  0.000000E+00  0.000000E+00  0.000000E+00
        22  0.000000E+00  0.000000E+00  0.000000E+00
        23  0.000000E+00  0.000000E+00  0.000000E+00
        24  0.000000E+00  0.000000E+00  0.000000E+00
        25  0.000000E+00  0.000000E+00  0.000000E+00
        26  0.000000E+00  0.000000E+00  0.000000E+00
        27  0.000000E+00  0.000000E+00  0.000000E+00
        28  0.000000E+00  0.000000E+00  0.000000E+00
        29  0.000000E+00  0.000000E+00  0.000000E+00
        30  0.000000E+00  0.000000E+00  0.000000E+00
        31  0.000000E+00  0.000000E+00  0.000000E+00
        32  0.000000E+00  0.000000E+00  0.000000E+00
        44  5.965251E-05 -1.996074E-03  2.771312E-04
        45  7.948397E-06 -1.520404E-03  4.881371E-04
        46 -3.663664E-05 -1.106716E-03  5.130100E-04
        47  6.470218E-05 -4.611331E-04  3.449245E-04
        48 -6.470222E-05 -4.611331E-04  3.449246E-04
        49  3.663702E-05 -1.106716E-03  5.130101E-04
        50 -7.948722E-06 -1.520404E-03  4.881359E-04
        51 -5.964984E-05 -1.996071E-03  2.771267E-04
        74 -5.143998E-05 -2.027460E-03 -2.807219E-04
        75 -2.373793E-06 -1.532042E-03 -4.902786E-04
        76  3.218109E-05 -1.104140E-03 -5.143486E-04
        77 -6.788365E-05 -4.550241E-04 -3.457381E-04
        89  5.143732E-05 -2.027457E-03 -2.807175E-04
        90  2.374120E-06 -1.532042E-03 -4.902773E-04
        91 -3.218148E-05 -1.104139E-03 -5.143487E-04
        92  6.788368E-05 -4.550242E-04 -3.457382E-04
        98  0.000000E+00  0.000000E+00  0.000000E+00
        99  0.000000E+00  0.000000E+00  0.000000E+00
       100  0.000000E+00  0.000000E+00  0.000000E+00
       101  0.000000E+00  0.000000E+00  0.000000E+00
       102  0.000000E+00  0.000000E+00  0.000000E+00
       124 -6.123496E-06 -1.809178E-03  2.631240E-04
       125  4.017693E-10 -2.011244E-03  2.790504E-04
       126  6.125014E-06 -1.809180E-03  2.631256E-04
       127 -6.406347E-11 -1.534697E-03  4.551732E-04
       128  1.548885E-05 -1.153811E-03  5.503887E-04
       129 -2.983838E-12 -1.098826E-03  5.629058E-04
       130 -1.548865E-05 -1.153811E-03  5.503889E-04
       131  1.596810E-11 -4.600931E-04  3.295169E-04
       153 -1.013955E-04 -2.406569E-03  1.267870E-04
       154 -2.914336E-06 -2.146480E-03 -9.291700E-07
       155  1.015524E-04 -2.416897E-03 -1.310927E-04
       156 -1.989267E-06 -1.588826E-03 -2.830422E-06
       157  1.473323E-05 -1.007810E-03  2.162457E-04
       158  3.056235E-06 -1.084581E-03 -3.956417E-07
       159 -1.147489E-05 -1.008560E-03 -2.166208E-04
       160  1.310272E-06 -3.910745E-04  7.687775E-07
       182 -6.697527E-06 -1.796355E-03 -2.646969E-04
       183 -4.049214E-10 -2.037737E-03 -2.806004E-04
       184  6.696008E-06 -1.796353E-03 -2.646953E-04
       185  5.858657E-11 -1.549163E-03 -4.553081E-04
       186  1.459432E-05 -1.168043E-03 -5.542699E-04
       187  1.663020E-12 -1.110285E-03 -5.675431E-04
       188 -1.459452E-05 -1.168043E-03 -5.542697E-04
       189 -1.585156E-11 -4.620144E-04 -3.312566E-04
       211 -1.015539E-04 -2.416895E-03 -1.310912E-04
       212  2.914351E-06 -2.146479E-03 -9.291725E-07
       213  1.013970E-04 -2.406568E-03  1.267854E-04
       214  1.989275E-06 -1.588826E-03 -2.830421E-06
       215  1.147475E-05 -1.008560E-03 -2.166207E-04
       216 -3.056247E-06 -1.084581E-03 -3.956413E-07
       217 -1.473310E-05 -1.007810E-03  2.162455E-04
       218 -1.310275E-06 -3.910745E-04  7.687771E-07
       250  3.661680E-10 -2.032879E-03  1.104757E-04
       251 -4.163690E-07 -1.524799E-03  3.352803E-06
       252  2.217073E-12 -1.541504E-03  1.231440E-06
       253  4.163637E-07 -1.524800E-03  3.352806E-06
       254 -3.535406E-10 -2.048993E-03 -1.231999E-04
       255 -4.405570E-12 -1.694612E-03 -1.114585E-06
       256 -4.795466E-11 -9.479573E-04  2.520597E-04
       257 -1.548089E-06 -1.092000E-03 -1.289321E-06
       258  7.106997E-13 -9.359738E-04 -1.118027E-06
       259  1.548088E-06 -1.092000E-03 -1.289321E-06
       260  4.475080E-11 -9.524582E-04 -2.523084E-04
       261 -4.242804E-13 -4.352983E-04  8.277487E-08

 forces (fx,fy,fz) for set NALL and time  0.2000000E-01

         5  8.377397E-01 -1.313546E+00 -9.273457E-01
         6 -8.377417E-01 -1.313544E+00 -9.273513E-01
         7  8.918383E-01 -1.156294E+00  9.253188E-01
         8 -8.918365E-01 -1.156296E+00  9.253134E-01
        21  5.244907E-01  3.180556E+00 -1.108626E+01
        22  1.716803E-06 -5.344709E-01 -2.069462E+00
        23 -5.244896E-01  3.180562E+00 -1.108625E+01
        24 -2.181846E+00  7.404843E+00 -5.536216E+00
        25  4.491433E-02 -3.483985E+00 -8.637488E-03
        26  2.118223E+00  7.362787E+00  5.576827E+00
        27  5.133868E-01  2.973602E+00  1.104382E+01
        28 -1.849298E-06 -3.135382E-01  2.070276E+00
        29 -5.133875E-01  2.973596E+00  1.104382E+01
        30 -2.118217E+00  7.362788E+00  5.576831E+00
        31 -4.491463E-02 -3.483982E+00 -8.637454E-03
        32  2.181840E+00  7.404844E+00 -5.536220E+00
        44  1.413395E-01  2.267660E+01  1.084702E+00
        45 -4.390483E-07 -6.080769E-01  1.525481E-01
        46  3.212034E-07  1.541502E+00 -4.634061E-01
        47 -9.259240E-08 -1.167019E+00  5.403017E-01
        48  1.574002E-07 -1.167019E+00  5.403018E-01
        49 -3.244163E-07  1.541502E+00 -4.634062E-01
        50  3.386838E-07 -6.080770E-01  1.525481E-01
        51 -1.413272E-01  2.267661E+01  1.084683E+00
        74 -3.878230E-01  2.181281E+01 -1.012896E+00
        75  3.023148E-08 -6.080822E-01 -1.525464E-01
        76 -7.835705E-08  1.541506E+00  4.634056E-01
        77  2.247452E-07 -1.167020E+00 -5.403015E-01
        89  3.878128E-01  2.181282E+01 -1.012877E+00
        90 -2.268072E-07 -6.080820E-01 -1.525464E-01
        91  1.563478E-07  1.541506E+00  4.634056E-01
        92 -2.403740E-07 -1.167020E+00 -5.403015E-01
        98  2.163299E-06  1.345697E+01 -1.003947E+01
        99  3.307246E-02 -2.555895E+00 -6.041461E-03
       100 -2.820605E-07 -8.117546E+00 -1.918648E-02
       101 -3.307192E-02 -2.555900E+00 -6.041348E-03
       102 -2.354779E-06  1.358875E+01  1.009887E+01
       124 -2.711930E+00  1.251544E+01 -8.061382E-01
       125  5.464560E-06  3.934412E+01  2.160659E+00
       126  2.711925E+00  1.251543E+01 -8.061332E-01
       127  4.074522E-08 -1.216154E+00  3.050957E-01
       128  3.127111E-07 -2.615815E+00  9.358530E-01
       129 -5.124315E-08  3.083004E+00 -9.268121E-01
       130 -2.855624E-07 -2.615815E+00  9.358528E-01
       131  8.681437E-08 -2.334037E+00  1.080603E+00
       153 -1.870867E+00 -6.540263E+01 -1.693188E+00
       154 -1.931740E-01  4.518240E+01  6.774948E-02
       155  2.346065E+00 -6.516148E+01  1.445871E+00
       156 -7.359377E-07 -1.216159E+00 -1.569908E-06
       157 -4.560500E-07 -2.615816E+00  7.018890E-01
       158  3.673270E-07  3.083007E+00  7.419803E-07
       159 -4.081887E-08 -2.615820E+00 -7.018893E-01
       160 -7.468024E-08 -2.334039E+00 -2.179438E-07
       182 -2.768485E+00  1.401743E+01  8.573705E-01
       183 -4.211017E-06  3.804281E+01 -1.913679E+00
       184  2.768487E+00  1.401744E+01  8.573753E-01
       185  6.055038E-08 -1.742481E+00 -3.050925E-01
       186  1.168669E-07 -3.142136E+00 -9.358512E-01
       187  1.788751E-08  2.556696E+00  9.268113E-01
       188 -2.204677E-07 -3.142136E+00 -9.358513E-01
       189 -2.706415E-08 -2.860355E+00 -1.080603E+00
       211 -2.346078E+00 -6.516148E+01  1.445876E+00
       212  1.931767E-01  4.518241E+01  6.774958E-02
       213  1.870878E+00 -6.540264E+01 -1.693193E+00
       214  5.774295E-07 -1.216159E+00 -1.444626E-06
       215 -1.270088E-07 -2.615820E+00 -7.018893E-01
       216 -2.858349E-07  3.083007E+00  6.604335E-07
       217  4.090988E-07 -2.615816E+00  7.018891E-01
       218  3.808346E-08 -2.334039E+00 -2.657515E-07
       250  2.541532E-06 -1.100177E+02 -3.739370E+00
       251 -7.200790E-02  4.158601E+01  3.862212E-01
       252  2.119862E-06  9.411587E+01  3.037527E-01
       253  7.200349E-02  4.158601E+01  3.862214E-01
       254 -1.577023E-06 -1.106204E+02  2.525286E+00
       255  1.988200E-07 -2.432318E+00 -3.824421E-06
       256  9.154025E-08 -5.231631E+00  1.403778E+00
       257  4.398888E-07 -5.231635E+00 -1.643856E-06
       258 -3.180173E-08  6.166015E+00  1.500555E-06
       259 -4.452634E-07 -5.231635E+00 -1.704245E-06
       260  4.173518E-08 -5.231640E+00 -1.403778E+00
       261 -2.953791E-08 -4.668077E+00 -5.686506E-07

 displacements (vx,vy,vz) for set NALL and time  0.4000000E-01

         5  0.000000E+00  0.000000E+00  0.000000E+00
         6  0.000000E+00  0.000000E+00  0.000000E+00
         7  0.000000E+00  0.000000E+00  0.000000E+00
         8  0.000000E+00  0.000000E+00  0.000000E+00
        21  0.000000E+00  0.000000E+00  0.000000E+00
        22  0.000000E+00  0.000000E+00  0.000000E+00
        23  0.000000E+00  0.000000E+00  0.000000E+00
        24  0.000000E+00  0.000000E+00  0.000000E+00
        25  0.000000E+00  0.000000E+00  0.000000E+00
        26  0.000000E+00  0.000000E+00  0.000000E+00
        27  0.000000E+00  0.000000E+00  0.000000E+00
        28  0.000000E+00  0.000000E+00  0.000000E+00
        29  0.000000E+00  0.000000E+00  0.000000E+00
        30  0.000000E+00  0.000000E+00  0.000000E+00
        31  0.000000E+00  0.000000E+00  0.000000E+00
        32  0.000000E+00  0.000000E+00  0.000000E+00
        44 -1.483732E-04  1.639654E-03 -2.396261E-04
        45 -2.751225E-05  1.225492E-03 -4.191334E-04
        46  3.131758E-05  9.400834E-04 -4.438338E-04
        47 -4.694848E-05  3.799857E-04 -2.840271E-04
        48  4.694811E-05  3.799853E-04 -2.840260E-04
        49 -3.131461E-05  9.400864E-04 -4.438329E-04
        50  2.750947E-05  1.225489E-03 -4.191428E-04
        51  1.483938E-04  1.639674E-03 -2.396603E-04
        74  1.408765E-04  1.664570E-03  2.379001E-04
        75  2.159539E-05  1.236932E-03  4.183609E-04
        76 -2.783423E-05  9.335287E-04  4.437048E-04
        77  4.883593E-05  3.760299E-04  2.842476E-04
        89 -1.408972E-04  1.664591E-03  2.379342E-04
        90 -2.159261E-05  1.236929E-03  4.183703E-04
        91  2.783127E-05  9.335317E-04  4.437038E-04
        92 -4.883556E-05  3.760295E-04  2.842465E-04
        98  0.000000E+00  0.000000E+00  0.000000E+00
        99  0.000000E+00  0.000000E+00  0.000000E+00
       100  0.000000E+00  0.000000E+00  0.000000E+00
       101  0.000000E+00  0.000000E+00  0.000000E+00
       102  0.000000E+00  0.000000E+00  0.000000E+00
       124  7.472209E-05  1.509028E-03 -2.336401E-04
       125  2.817480E-09  1.681111E-03 -2.258256E-04
       126 -7.471064E-05  1.509016E-03 -2.336281E-04
       127 -4.448664E-10  1.286881E-03 -3.778584E-04
       128 -1.848618E-05  9.607499E-04 -4.640419E-04
       129 -1.392677E-10  8.980529E-04 -4.724701E-04
       130  1.848761E-05  9.607489E-04 -4.640407E-04
       131  9.420738E-11  3.772879E-04 -2.772054E-04
       153  8.181774E-05  1.991958E-03 -1.130901E-04
       154  4.296624E-06  1.705963E-03  1.124332E-07
       155 -8.206290E-05  1.998515E-03  1.139246E-04
       156  3.054273E-06  1.326079E-03  1.237047E-06
       157 -2.163949E-05  8.237038E-04 -1.882255E-04
       158 -2.236316E-06  8.739500E-04  1.558275E-07
       159  2.126702E-05  8.219930E-04  1.876668E-04
       160 -8.311515E-07  3.248607E-04 -8.778903E-08
       182  7.605876E-05  1.494785E-03  2.311440E-04
       183 -2.814330E-09  1.697997E-03  2.235402E-04
       184 -7.607021E-05  1.494797E-03  2.311560E-04
       185  4.520345E-10  1.295174E-03  3.759589E-04
       186 -1.800150E-05  9.640300E-04  4.654799E-04
       187  1.403807E-10  8.938559E-04  4.739789E-04
       188  1.800008E-05  9.640311E-04  4.654810E-04
       189 -9.394655E-11  3.752705E-04  2.775538E-04
       211  8.205112E-05  1.998527E-03  1.139366E-04
       212 -4.296634E-06  1.705969E-03  1.124325E-07
       213 -8.180594E-05  1.991970E-03 -1.131021E-04
       214 -3.054279E-06  1.326078E-03  1.237046E-06
       215 -2.126807E-05  8.219944E-04  1.876680E-04
       216  2.236328E-06  8.739497E-04  1.558263E-07
       217  2.164055E-05  8.237053E-04 -1.882266E-04
       218  8.311550E-07  3.248609E-04 -8.778941E-08
       250  2.603341E-09  1.750267E-03 -8.683180E-05
       251 -6.943966E-07  1.238867E-03 -1.987146E-06
       252  1.465513E-12  1.373642E-03 -1.761150E-07
       253  6.944066E-07  1.238862E-03 -1.987148E-06
       254 -2.611672E-09  1.759477E-03  9.270620E-05
       255  4.864279E-12  1.412288E-03  1.188282E-07
       256 -4.126165E-10  7.781604E-04 -2.113239E-04
       257  7.523424E-07  9.022208E-04  3.687375E-07
       258  7.737746E-14  7.769217E-04  1.991468E-07
       259 -7.523397E-07  9.022217E-04  3.687377E-07
       260  4.163602E-10  7.757725E-04  2.106688E-04
       261  3.310486E-13  3.487731E-04  3.295615E-07

 forces (fx,fy,fz) for set NALL and time  0.4000000E-01

         5 -6.592189E-01  1.255005E+00  6.862811E-01
         6  6.592030E-01  1.255020E+00  6.862367E-01
         7 -6.899778E-01  1.126200E+00 -6.817956E-01
         8  6.899939E-01  1.126184E+00 -6.818400E-01
        21 -8.654884E-01 -2.441806E+00  9.204878E+00
        22  1.467294E-05  8.135733E-01  1.489251E+00
        23  8.654957E-01 -2.441753E+00  9.204906E+00
        24  1.576463E+00 -6.982708E+00  4.664579E+00
        25 -3.225865E-02  3.756307E+00  1.367063E-02
        26 -1.504452E+00 -6.911678E+00 -4.708264E+00
        27 -8.876927E-01 -2.262657E+00 -9.177674E+00
        28 -1.453998E-05  6.379100E-01 -1.477884E+00
        29  8.876850E-01 -2.262709E+00 -9.177646E+00
        30  1.504504E+00 -6.911670E+00 -4.708236E+00
        31  3.225892E-02  3.756336E+00  1.367058E-02
        32 -1.576515E+00 -6.982701E+00  4.664551E+00
        44  1.958296E-01 -2.080540E+01 -4.002863E-01
        45  3.758320E-07  5.208691E-01 -1.306703E-01
        46 -2.751800E-07 -1.320426E+00  3.969464E-01
        47  7.965756E-08  9.996500E-01 -4.628140E-01
        48 -1.351709E-07  9.996499E-01 -4.628141E-01
        49  2.779321E-07 -1.320426E+00  3.969465E-01
        50 -2.898613E-07  5.208692E-01 -1.306703E-01
        51 -1.957406E-01 -2.080531E+01 -4.004375E-01
        74 -1.107463E-02 -1.991838E+01  3.586160E-01
        75 -2.563049E-08  5.208737E-01  1.306689E-01
        76  6.714682E-08 -1.320430E+00 -3.969460E-01
        77 -1.928573E-07  9.996507E-01  4.628138E-01
        89  1.098367E-02 -1.991829E+01  3.587671E-01
        90  1.940142E-07  5.208735E-01  1.306689E-01
        91 -1.339524E-07 -1.320430E+00 -3.969460E-01
        92  2.062448E-07  9.996508E-01  4.628138E-01
        98  2.012266E-05 -1.187718E+01  8.443636E+00
        99 -3.931870E-03  2.831780E+00  8.666559E-03
       100  2.410473E-07  6.643646E+00  3.721429E-02
       101  3.931385E-03  2.831740E+00  8.666447E-03
       102 -1.995113E-05 -1.187845E+01 -8.529749E+00
       124  5.329544E+00 -1.144931E+01 -3.380657E-01
       125  3.587938E-05 -3.484387E+01 -7.036118E-01
       126 -5.329571E+00 -1.144941E+01 -3.380389E-01
       127 -3.490170E-08  1.041738E+00 -2.613402E-01
       128 -2.679384E-07  2.240666E+00 -8.016370E-01
       129  4.389406E-08 -2.640853E+00  7.938927E-01
       130  2.446833E-07  2.240666E+00 -8.016369E-01
       131 -7.436384E-08  1.999300E+00 -9.256279E-01
       153  2.682780E+00  6.014385E+01  7.535954E-01
       154  1.719232E-01 -4.308261E+01 -3.626216E-02
       155 -3.162709E+00  5.964852E+01 -6.160468E-01
       156  6.303938E-07  1.041742E+00  1.344727E-06
       157  3.907290E-07  2.240667E+00 -6.012272E-01
       158 -3.146566E-07 -2.640856E+00 -6.355458E-07
       159  3.490631E-08  2.240670E+00  6.012274E-01
       160  6.398247E-08  1.999301E+00  1.866898E-07
       182  5.524294E+00 -1.275538E+01  2.835530E-01
       183 -3.709392E-05 -3.345841E+01  5.749582E-01
       184 -5.524264E+00 -1.275529E+01  2.835799E-01
       185 -5.186651E-08  1.069449E+00  2.613374E-01
       186 -1.001670E-07  2.268372E+00  8.016355E-01
       187 -1.532215E-08 -2.613159E+00 -7.938921E-01
       188  1.889098E-07  2.268372E+00  8.016355E-01
       189  2.318272E-08  2.027003E+00  9.256274E-01
       211  3.162619E+00  5.964849E+01 -6.160197E-01
       212 -1.719257E-01 -4.308254E+01 -3.626221E-02
       213 -2.682689E+00  6.014383E+01  7.535684E-01
       214 -4.946182E-07  1.041742E+00  1.237412E-06
       215  1.088522E-07  2.240670E+00  6.012274E-01
       216  2.448517E-07 -2.640856E+00 -5.656941E-07
       217 -3.505113E-07  2.240667E+00 -6.012273E-01
       218 -3.263424E-08  1.999301E+00  2.276412E-07
       250  1.064224E-05  9.832620E+01  3.502941E+00
       251 -1.576990E-02 -3.795550E+01 -2.097837E-01
       252 -1.887033E-06 -8.012314E+01 -1.256172E-01
       253  1.577391E-02 -3.795552E+01 -2.097839E-01
       254 -1.149708E-05  9.817638E+01 -2.822482E+00
       255 -1.703061E-07  2.083485E+00  3.275872E-06
       256 -7.841197E-08  4.481334E+00 -1.202454E+00
       257 -3.768259E-07  4.481337E+00  1.408072E-06
       258  2.724087E-08 -5.281712E+00 -1.285302E-06
       259  3.814297E-07  4.481337E+00  1.459800E-06
       260 -3.574969E-08  4.481341E+00  1.202455E+00
       261  2.530172E-08  3.998602E+00  4.870998E-07

 displacements (vx,vy,vz) for set NALL and time  0.6000000E-01

         5  0.000000E+00  0.000000E+00  0.000000E+00
         6  0.000000E+00  0.000000E+00  0.000000E+00
         7  0.000000E+00  0.000000E+00  0.000000E+00
         8  0.000000E+00  0.000000E+00  0.000000E+00
        21  0.000000E+00  0.000000E+00  0.000000E+00
        22  0.000000E+00  0.000000E+00  0.000000E+00
        23  0.000000E+00  0.000000E+00  0.000000E+00
        24  0.000000E+00  0.000000E+00  0.000000E+00
        25  0.000000E+00  0.000000E+00  0.000000E+00
        26  0.000000E+00  0.000000E+00  0.000000E+00
        27  0.000000E+00  0.000000E+00  0.000000E+00
        28  0.000000E+00  0.000000E+00  0.000000E+00
        29  0.000000E+00  0.000000E+00  0.000000E+00
        30  0.000000E+00  0.000000E+00  0.000000E+00
        31  0.000000E+00  0.000000E+00  0.000000E+00
        32  0.000000E+00  0.000000E+00  0.000000E+00
        44  4.148458E-05 -1.381508E-03  1.935064E-04
        45  1.765879E-05 -1.042435E-03  3.444628E-04
        46 -2.333775E-05 -7.499214E-04  3.713972E-04
        47  4.352522E-05 -3.077576E-04  2.404756E-04
        48 -4.352666E-05 -3.077590E-04  2.404800E-04
        49  2.334953E-05 -7.499096E-04  3.714009E-04
        50 -1.766972E-05 -1.042446E-03  3.444253E-04
        51 -4.140249E-05 -1.381425E-03  1.933707E-04
        74 -4.114820E-05 -1.406792E-03 -2.023484E-04
        75 -1.166430E-05 -1.050519E-03 -3.458256E-04
        76  1.911668E-05 -7.456727E-04 -3.713127E-04
        77 -4.498431E-05 -3.044334E-04 -2.406815E-04
        89  4.106611E-05 -1.406710E-03 -2.022126E-04
        90  1.167523E-05 -1.050530E-03 -3.457882E-04
        91 -1.912847E-05 -7.456610E-04 -3.713164E-04
        92  4.498575E-05 -3.044349E-04 -2.406859E-04
        98  0.000000E+00  0.000000E+00  0.000000E+00
        99  0.000000E+00  0.000000E+00  0.000000E+00
       100  0.000000E+00  0.000000E+00  0.000000E+00
       101  0.000000E+00  0.000000E+00  0.000000E+00
       102  0.000000E+00  0.000000E+00  0.000000E+00
       124 -1.036984E-05 -1.251071E-03  2.109189E-04
       125  1.132207E-08 -1.378975E-03  1.795315E-04
       126  1.041545E-05 -1.251118E-03  2.109665E-04
       127 -1.792656E-09 -1.067566E-03  3.226571E-04
       128  1.132802E-05 -7.776498E-04  3.831871E-04
       129 -4.985465E-10 -7.353845E-04  3.963863E-04
       130 -1.132229E-05 -7.776539E-04  3.831916E-04
       131  3.882052E-10 -3.084607E-04  2.318682E-04
       153 -7.547077E-05 -1.663738E-03  1.048978E-04
       154 -2.716463E-06 -1.479039E-03  1.934075E-07
       155  7.238891E-05 -1.671663E-03 -1.090429E-04
       156 -2.027199E-06 -1.087149E-03 -1.140243E-06
       157  1.218069E-05 -6.780848E-04  1.557302E-04
       158  1.672477E-06 -7.288043E-04 -1.046056E-07
       159 -1.244736E-05 -6.770781E-04 -1.555889E-04
       160  3.988977E-07 -2.596928E-04  8.746156E-08
       182 -1.320781E-05 -1.242782E-03 -2.117550E-04
       183 -1.132665E-08 -1.393580E-03 -1.775679E-04
       184  1.316220E-05 -1.242735E-03 -2.117074E-04
       185  1.788087E-09 -1.074121E-03 -3.221119E-04
       186  9.988116E-06 -7.806558E-04 -3.853353E-04
       187  4.962848E-10 -7.315300E-04 -3.985241E-04
       188 -9.993852E-06 -7.806516E-04 -3.853308E-04
       189 -3.882884E-10 -3.067208E-04 -2.320971E-04
       211 -7.243578E-05 -1.671618E-03 -1.089952E-04
       212  2.716476E-06 -1.479017E-03  1.934023E-07
       213  7.551763E-05 -1.663692E-03  1.048501E-04
       214  2.027202E-06 -1.087153E-03 -1.140242E-06
       215  1.244317E-05 -6.770724E-04 -1.555843E-04
       216 -1.672486E-06 -7.288053E-04 -1.046045E-07
       217 -1.217650E-05 -6.780790E-04  1.557257E-04
       218 -3.989006E-07 -2.596920E-04  8.746162E-08
       250  1.044095E-08 -1.426855E-03  8.275688E-05
       251  2.066448E-07 -1.082497E-03  2.569996E-06
       252 -6.621568E-14 -1.126152E-03  1.187978E-06
       253 -2.066494E-07 -1.082518E-03  2.569999E-06
       254 -1.043544E-08 -1.435826E-03 -8.857123E-05
       255 -3.486714E-12 -1.156189E-03  3.533300E-07
       256 -1.621467E-09 -6.413930E-04  1.759518E-04
       257 -5.486925E-07 -7.420341E-04 -5.682571E-07
       258 -1.491845E-13 -6.412236E-04 -4.970820E-07
       259  5.486908E-07 -7.420308E-04 -5.682570E-07
       260  1.618040E-09 -6.389195E-04 -1.756589E-04
       261 -4.179194E-13 -2.860840E-04 -4.753711E-07

 forces (fx,fy,fz) for set NALL and time  0.6000000E-01

         5  5.602483E-01 -8.554061E-01 -4.284076E-01
         6 -5.603115E-01 -8.553429E-01 -4.285834E-01
         7  5.990235E-01 -7.506222E-01  4.308865E-01
         8 -5.989604E-01 -7.506853E-01  4.307107E-01
        21  4.464311E-01  1.893884E+00 -7.659017E+00
        22  5.760291E-05 -3.779991E-01 -9.633684E-01
        23 -4.464011E-01  1.894091E+00 -7.658906E+00
        24 -1.348944E+00  4.965866E+00 -3.946546E+00
        25  2.292942E-02 -2.338022E+00 -3.217890E-03
        26  1.304695E+00  4.926359E+00  3.991307E+00
        27  4.470228E-01  1.754346E+00  7.627522E+00
        28 -5.768953E-05 -2.696385E-01  9.577106E-01
        29 -4.470525E-01  1.754139E+00  7.627633E+00
        30 -1.304488E+00  4.926389E+00  3.991417E+00
        31 -2.292963E-02 -2.337907E+00 -3.217860E-03
        32  1.348738E+00  4.965896E+00 -3.946657E+00
        44 -7.127320E-02  1.568224E+01 -2.095808E-01
        45 -2.984597E-07 -4.142590E-01  1.039251E-01
        46  2.189520E-07  1.050165E+00 -3.157005E-01
        47 -6.401487E-08 -7.950443E-01  3.680865E-01
        48  1.081659E-07 -7.950443E-01  3.680865E-01
        49 -2.211408E-07  1.050165E+00 -3.157005E-01
        50  2.300853E-07 -4.142591E-01  1.039251E-01
        51  7.162987E-02  1.568260E+01 -2.101785E-01
        74 -1.322067E-01  1.499284E+01  2.146654E-01
        75  1.990914E-08 -4.142626E-01 -1.039239E-01
        76 -5.347588E-08  1.050168E+00  3.157002E-01
        77  1.540473E-07 -7.950449E-01 -3.680863E-01
        89  1.318515E-01  1.499320E+01  2.152632E-01
        90 -1.538285E-07 -4.142625E-01 -1.039239E-01
        91  1.066079E-07  1.050168E+00  3.157002E-01
        92 -1.646946E-07 -7.950450E-01 -3.680863E-01
        98  7.839126E-05  8.837342E+00 -7.123410E+00
        99  1.120643E-02 -1.767981E+00 -1.142187E-02
       100 -1.858531E-07 -4.919465E+00 -3.278401E-02
       101 -1.120606E-02 -1.768138E+00 -1.142176E-02
       102 -7.850483E-05  8.887841E+00  7.228340E+00
       124 -2.575169E+00  8.743660E+00  1.018266E+00
       125  1.457678E-04  2.707209E+01 -6.137496E-01
       126  2.575057E+00  8.743300E+00  1.018378E+00
       127  2.775815E-08 -8.285180E-01  2.078498E-01
       128  2.132572E-07 -1.782053E+00  6.375601E-01
       129 -3.490996E-08  2.100330E+00 -6.314009E-01
       130 -1.947618E-07 -1.782053E+00  6.375600E-01
       131  5.914325E-08 -1.590089E+00  7.361729E-01
       153 -1.707522E+00 -4.514191E+01  9.833478E-03
       154 -1.452962E-01  3.160767E+01  4.068380E-02
       155  2.022689E+00 -4.484534E+01 -1.785359E-01
       156 -5.013613E-07 -8.285213E-01 -1.069441E-06
       157 -3.109292E-07 -1.782053E+00  4.781696E-01
       158  2.502655E-07  2.100333E+00  5.054275E-07
       159 -2.762482E-08 -1.782056E+00 -4.781697E-01
       160 -5.090618E-08 -1.590089E+00 -1.484816E-07
       182 -2.624058E+00  9.762618E+00 -9.713732E-01
       183 -1.449124E-04  2.606612E+01  7.554885E-01
       184  2.624168E+00  9.762980E+00 -9.712615E-01
       185  4.125061E-08 -8.299836E-01 -2.078476E-01
       186  7.980343E-08 -1.783514E+00 -6.375589E-01
       187  1.218607E-08  2.098878E+00  6.314004E-01
       188 -1.503826E-07 -1.783514E+00 -6.375589E-01
       189 -1.843774E-08 -1.591548E+00 -7.361724E-01
       211 -2.023050E+00 -4.484545E+01 -1.784244E-01
       212  1.452981E-01  3.160797E+01  4.068378E-02
       213  1.707882E+00 -4.514202E+01  9.721827E-03
       214  3.933758E-07 -8.285213E-01 -9.840914E-07
       215 -8.670957E-08 -1.782056E+00 -4.781698E-01
       216 -1.947481E-07  2.100333E+00  4.498729E-07
       217  2.789432E-07 -1.782053E+00  4.781697E-01
       218  2.597422E-08 -1.590089E+00 -1.810512E-07
       250  4.642496E-05 -7.524388E+01 -1.734491E+00
       251 -5.250946E-02  2.805348E+01  2.520469E-01
       252  1.443204E-06  6.305355E+01  1.666525E-01
       253  5.250643E-02  2.805338E+01  2.520470E-01
       254 -4.579091E-05 -7.540765E+01  1.005296E+00
       255  1.354483E-07 -1.657043E+00 -2.605270E-06
       256  6.236281E-08 -3.564106E+00  9.563388E-01
       257  2.997325E-07 -3.564109E+00 -1.119824E-06
       258 -2.166528E-08  4.200665E+00  1.022151E-06
       259 -3.033940E-07 -3.564109E+00 -1.160964E-06
       260  2.843255E-08 -3.564112E+00 -9.563393E-01
       261 -2.012302E-08 -3.180179E+00 -3.874026E-07

 displacements (vx,vy,vz) for set NALL and time  0.8000000E-01

         5  0.000000E+00  0.000000E+00  0.000000E+00
         6  0.000000E+00  0.000000E+00  0.000000E+00
         7  0.000000E+00  0.000000E+00  0.000000E+00
         8  0.000000E+00  0.000000E+00  0.000000E+00
        21  0.000000E+00  0.000000E+00  0.000000E+00
        22  0.000000E+00  0.000000E+00  0.000000E+00
        23  0.000000E+00  0.000000E+00  0.000000E+00
        24  0.000000E+00  0.000000E+00  0.000000E+00
        25  0.000000E+00  0.000000E+00  0.000000E+00
        26  0.000000E+00  0.000000E+00  0.000000E+00
        27  0.000000E+00  0.000000E+00  0.000000E+00
        28  0.000000E+00  0.000000E+00  0.000000E+00
        29  0.000000E+00  0.000000E+00  0.000000E+00
        30  0.000000E+00  0.000000E+00  0.000000E+00
        31  0.000000E+00  0.000000E+00  0.000000E+00
        32  0.000000E+00  0.000000E+00  0.000000E+00
        44 -4.870352E-05  9.929687E-04 -1.416777E-04
        45 -8.599016E-06  7.533760E-04 -2.457866E-04
        46  1.874266E-05  5.576731E-04 -2.599777E-04
        47 -3.139021E-05  2.308896E-04 -1.725711E-04
        48  3.139079E-05  2.308902E-04 -1.725729E-04
        49 -1.874744E-05  5.576683E-04 -2.599792E-04
        50  8.603462E-06  7.533804E-04 -2.457713E-04
        51  4.867006E-05  9.929355E-04 -1.416225E-04
        74  4.526494E-05  1.006411E-03  1.408865E-04
        75  5.255673E-06  7.594755E-04  2.451665E-04
        76 -1.680468E-05  5.540542E-04  2.596153E-04
        77  3.234979E-05  2.287021E-04  1.725260E-04
        89 -4.523150E-05  1.006378E-03  1.408314E-04
        90 -5.260112E-06  7.594799E-04  2.451512E-04
        91  1.680946E-05  5.540495E-04  2.596168E-04
        92 -3.235037E-05  2.287027E-04  1.725278E-04
        98  0.000000E+00  0.000000E+00  0.000000E+00
        99  0.000000E+00  0.000000E+00  0.000000E+00
       100  0.000000E+00  0.000000E+00  0.000000E+00
       101  0.000000E+00  0.000000E+00  0.000000E+00
       102  0.000000E+00  0.000000E+00  0.000000E+00
       124  1.618955E-05  9.083287E-04 -1.382238E-04
       125 -4.655117E-09  1.009304E-03 -1.424504E-04
       126 -1.620818E-05  9.083477E-04 -1.382432E-04
       127  7.362870E-10  7.706398E-04 -2.283853E-04
       128 -8.785701E-06  5.771678E-04 -2.758302E-04
       129  2.024993E-10  5.467799E-04 -2.815970E-04
       130  8.783375E-06  5.771695E-04 -2.758321E-04
       131 -1.561352E-10  2.306692E-04 -1.664393E-04
       153  4.989351E-05  1.194047E-03 -6.585666E-05
       154  2.411087E-06  1.053665E-03  1.548159E-07
       155 -4.943731E-05  1.197690E-03  6.612189E-05
       156  1.527740E-06  7.964207E-04  5.716364E-07
       157 -8.640161E-06  5.025141E-04 -1.102729E-04
       158 -1.166412E-06  5.366942E-04 -1.425270E-07
       159  8.500403E-06  5.015022E-04  1.096845E-04
       160 -4.133607E-07  1.965447E-04 -1.307913E-07
       182  1.716395E-05  9.000629E-04  1.360963E-04
       183  4.660054E-09  1.017040E-03  1.396248E-04
       184 -1.714532E-05  9.000440E-04  1.360769E-04
       185 -7.272802E-10  7.751709E-04  2.266070E-04
       186 -8.479382E-06  5.786156E-04  2.764950E-04
       187 -2.032736E-10  5.439178E-04  2.824561E-04
       188  8.481708E-06  5.786139E-04  2.764932E-04
       189  1.568069E-10  2.293919E-04  1.665744E-04
       211  4.945645E-05  1.197671E-03  6.610238E-05
       212 -2.411067E-06  1.053655E-03  1.547913E-07
       213 -4.991262E-05  1.194029E-03 -6.583716E-05
       214 -1.527743E-06  7.964222E-04  5.716315E-07
       215 -8.498705E-06  5.014999E-04  1.096827E-04
       216  1.166424E-06  5.366945E-04 -1.425282E-07
       217  8.638471E-06  5.025118E-04 -1.102711E-04
       218  4.133622E-07  1.965444E-04 -1.307933E-07
       250 -4.270715E-09  1.030968E-03 -5.609448E-05
       251 -4.684294E-07  7.630687E-04 -1.656660E-06