    1C
    1UUSER                                                              
    1UDATE              12.july.2018                                    
    1UTIME              16:07:45                                        
    1UHOST                                                              
    1UPGM               CalculiX                                        
    1UVERSION           Version 2.13                             
    1UCOMPILETIME       jue jun 14 00:40:39 CEST 2018                    
    1UDIR                                                               
    1UDBN                                                               
    1UMAT    1EL                                                        
    2C                            81                                     1
 -1         5 0.00000E+00 0.00000E+00 8.00000E+00
 -1         6 1.00000E+00 0.00000E+00 8.00000E+00
 -1         7 1.00000E+00 1.00000E+00 8.00000E+00
 -1         8 0.00000E+00 1.00000E+00 8.00000E+00
 -1        21 2.50000E-01 0.00000E+00 8.00000E+00
 -1        22 5.00000E-01 0.00000E+00 8.00000E+00
 -1        23 7.50000E-01 0.00000E+00 8.00000E+00
 -1        24 1.00000E+00 2.50000E-01 8.00000E+00
 -1        25 1.00000E+00 5.00000E-01 8.00000E+00
 -1        26 1.00000E+00 7.50000E-01 8.00000E+00
 -1        27 7.50000E-01 1.00000E+00 8.00000E+00
 -1        28 5.00000E-01 1.00000E+00 8.00000E+00
 -1        29 2.50000E-01 1.00000E+00 8.00000E+00
 -1        30 0.00000E+00 7.50000E-01 8.00000E+00
 -1        31 0.00000E+00 5.00000E-01 8.00000E+00
 -1        32 0.00000E+00 2.50000E-01 8.00000E+00
 -1        44 1.00000E+00 0.00000E+00 6.00000E+00
 -1        45 1.00000E+00 0.00000E+00 6.50000E+00
 -1        46 1.00000E+00 0.00000E+00 7.00000E+00
 -1        47 1.00000E+00 0.00000E+00 7.50000E+00
 -1        48 0.00000E+00 0.00000E+00 7.50000E+00
 -1        49 0.00000E+00 0.00000E+00 7.00000E+00
 -1        50 0.00000E+00 0.00000E+00 6.50000E+00
 -1        51 0.00000E+00 0.00000E+00 6.00000E+00
 -1        74 1.00000E+00 1.00000E+00 6.00000E+00
 -1        75 1.00000E+00 1.00000E+00 6.50000E+00
 -1        76 1.00000E+00 1.00000E+00 7.00000E+00
 -1        77 1.00000E+00 1.00000E+00 7.50000E+00
 -1        89 0.00000E+00 1.00000E+00 6.00000E+00
 -1        90 0.00000E+00 1.00000E+00 6.50000E+00
 -1        91 0.00000E+00 1.00000E+00 7.00000E+00
 -1        92 0.00000E+00 1.00000E+00 7.50000E+00
 -1        98 5.00000E-01 2.50000E-01 8.00000E+00
 -1        99 2.50000E-01 5.00000E-01 8.00000E+00
 -1       100 5.00000E-01 5.00000E-01 8.00000E+00
 -1       101 7.50000E-01 5.00000E-01 8.00000E+00
 -1       102 5.00000E-01 7.50000E-01 8.00000E+00
 -1       124 2.50000E-01 0.00000E+00 6.00000E+00
 -1       125 5.00000E-01 0.00000E+00 6.00000E+00
 -1       126 7.50000E-01 0.00000E+00 6.00000E+00
 -1       127 5.00000E-01 0.00000E+00 6.50000E+00
 -1       128 2.50000E-01 0.00000E+00 7.00000E+00
 -1       129 5.00000E-01 0.00000E+00 7.00000E+00
 -1       130 7.50000E-01 0.00000E+00 7.00000E+00
 -1       131 5.00000E-01 0.00000E+00 7.50000E+00
 -1       153 1.00000E+00 2.50000E-01 6.00000E+00
 -1       154 1.00000E+00 5.00000E-01 6.00000E+00
 -1       155 1.00000E+00 7.50000E-01 6.00000E+00
 -1       156 1.00000E+00 5.00000E-01 6.50000E+00
 -1       157 1.00000E+00 2.50000E-01 7.00000E+00
 -1       158 1.00000E+00 5.00000E-01 7.00000E+00
 -1       159 1.00000E+00 7.50000E-01 7.00000E+00
 -1       160 1.00000E+00 5.00000E-01 7.50000E+00
 -1       182 7.50000E-01 1.00000E+00 6.00000E+00
 -1       183 5.00000E-01 1.00000E+00 6.00000E+00
 -1       184 2.50000E-01 1.00000E+00 6.00000E+00
 -1       185 5.00000E-01 1.00000E+00 6.50000E+00
 -1       186 7.50000E-01 1.00000E+00 7.00000E+00
 -1       187 5.00000E-01 1.00000E+00 7.00000E+00
 -1       188 2.50000E-01 1.00000E+00 7.00000E+00
 -1       189 5.00000E-01 1.00000E+00 7.50000E+00
 -1       211 0.00000E+00 7.50000E-01 6.00000E+00
 -1       212 0.00000E+00 5.00000E-01 6.00000E+00
 -1       213 0.00000E+00 2.50000E-01 6.00000E+00
 -1       214 0.00000E+00 5.00000E-01 6.50000E+00
 -1       215 0.00000E+00 7.50000E-01 7.00000E+00
 -1       216 0.00000E+00 5.00000E-01 7.00000E+00
 -1       217 0.00000E+00 2.50000E-01 7.00000E+00
 -1       218 0.00000E+00 5.00000E-01 7.50000E+00
 -1       250 5.00000E-01 2.50000E-01 6.00000E+00
 -1       251 2.50000E-01 5.00000E-01 6.00000E+00
 -1       252 5.00000E-01 5.00000E-01 6.00000E+00
 -1       253 7.50000E-01 5.00000E-01 6.00000E+00
 -1       254 5.00000E-01 7.50000E-01 6.00000E+00
 -1       255 5.00000E-01 5.00000E-01 6.50000E+00
 -1       256 5.00000E-01 2.50000E-01 7.00000E+00
 -1       257 2.50000E-01 5.00000E-01 7.00000E+00
 -1       258 5.00000E-01 5.00000E-01 7.00000E+00
 -1       259 7.50000E-01 5.00000E-01 7.00000E+00
 -1       260 5.00000E-01 7.50000E-01 7.00000E+00
 -1       261 5.00000E-01 5.00000E-01 7.50000E+00
 -3
    3C                             8                                     1
 -1        25    4    0    1
 -2        51       125       252       212        49       129       258       216       124       250
 -2       251       213        50       127       255       214       128       256       257       217
 -1        26    4    0    1
 -2       125        44       154       252       129        46       158       258       126       153
 -2       253       250       127        45       156       255       130       157       259       256
 -1        27    4    0    1
 -2       212       252       183        89       216       258       187        91       251       254
 -2       184       211       214       255       185        90       257       260       188       215
 -1        28    4    0    1
 -2       252       154        74       183       258       158        76       187       253       155
 -2       182       254       255       156        75       185       259       159       186       260
 -1        29    4    0    1
 -2        49       129       258       216         5        22       100        31       128       256
 -2       257       217        48       131       261       218        21        98        99        32
 -1        30    4    0    1
 -2       129        46       158       258        22         6        25       100       130       157
 -2       259       256       131        47       160       261        23        24       101        98
 -1        31    4    0    1
 -2       216       258       187        91        31       100        28         8       257       260
 -2       188       215       218       261       189        92        99       102        29        30
 -1        32    4    0    1
 -2       258       158        76       187       100        25         7        28       259       159
 -2       186       260       261       160        77       189       101        26        27       102
 -3
    1PSTEP                         1           1           1          
  100CL  101 2.00000E-02          81                     1    1           1
 -4  DISP        4    1
 -5  D1          1    2    1    0
 -5  D2          1    2    2    0
 -5  D3          1    2    3    0
 -5  ALL         1    2    0    0    1ALL
 -1         5 0.00000E+00 0.00000E+00 0.00000E+00
 -1         6 0.00000E+00 0.00000E+00 0.00000E+00
 -1         7 0.00000E+00 0.00000E+00 0.00000E+00
 -1         8 0.00000E+00 0.00000E+00 0.00000E+00
 -1        21 0.00000E+00 0.00000E+00 0.00000E+00
 -1        22 0.00000E+00 0.00000E+00 0.00000E+00
 -1        23 0.00000E+00 0.00000E+00 0.00000E+00
 -1        24 0.00000E+00 0.00000E+00 0.00000E+00
 -1        25 0.00000E+00 0.00000E+00 0.00000E+00
 -1        26 0.00000E+00 0.00000E+00 0.00000E+00
 -1        27 0.00000E+00 0.00000E+00 0.00000E+00
 -1        28 0.00000E+00 0.00000E+00 0.00000E+00
 -1        29 0.00000E+00 0.00000E+00 0.00000E+00
 -1        30 0.00000E+00 0.00000E+00 0.00000E+00
 -1        31 0.00000E+00 0.00000E+00 0.00000E+00
 -1        32 0.00000E+00 0.00000E+00 0.00000E+00
 -1        44 1.54923E-04-2.02111E-03 2.88835E-04
 -1        45 4.22886E-05-1.55777E-03 4.71387E-04
 -1        46-4.83381E-05-1.13243E-03 5.44611E-04
 -1        47 6.91842E-05-4.53563E-04 3.50585E-04
 -1        48-6.91886E-05-4.53565E-04 3.50592E-04
 -1        49 4.83222E-05-1.13243E-03 5.44625E-04
 -1        50-4.23222E-05-1.55778E-03 4.71409E-04
 -1        51-1.54983E-04-2.02111E-03 2.88864E-04
 -1        74-1.31334E-04-2.10888E-03-2.93278E-04
 -1        75-1.95291E-05-1.59569E-03-4.71433E-04
 -1        76 3.37066E-05-1.11421E-03-5.44763E-04
 -1        77-7.62992E-05-4.39794E-04-3.52017E-04
 -1        89 1.31274E-04-2.10888E-03-2.93249E-04
 -1        90 1.94957E-05-1.59569E-03-4.71411E-04
 -1        91-3.37227E-05-1.11421E-03-5.44749E-04
 -1        92 7.62949E-05-4.39791E-04-3.52010E-04
 -1        98 0.00000E+00 0.00000E+00 0.00000E+00
 -1        99 0.00000E+00 0.00000E+00 0.00000E+00
 -1       100 0.00000E+00 0.00000E+00 0.00000E+00
 -1       101 0.00000E+00 0.00000E+00 0.00000E+00
 -1       102 0.00000E+00 0.00000E+00 0.00000E+00
 -1       124 8.88716E-06-1.83856E-03 2.72834E-04
 -1       125-2.80520E-08-2.20178E-03 2.86119E-04
 -1       126-8.94429E-06-1.83855E-03 2.72821E-04
 -1       127-1.67881E-08-1.61324E-03 5.24580E-04
 -1       128 2.70533E-06-1.19466E-03 5.77710E-04
 -1       129-7.20037E-09-1.10805E-03 5.86388E-04
 -1       130-2.72025E-06-1.19466E-03 5.77702E-04
 -1       131-1.53393E-09-4.65091E-04 3.43276E-04
 -1       153-1.26157E-04-2.36372E-03 1.27521E-04
 -1       154-1.13018E-05-2.02435E-03-2.00816E-06
 -1       155 1.26679E-04-2.38700E-03-1.32036E-04
 -1       156-1.11762E-05-1.74525E-03-6.04712E-06
 -1       157 2.46021E-05-9.78052E-04 2.32908E-04
 -1       158 8.24516E-06-1.00128E-03-2.76192E-06
 -1       159-2.21557E-05-9.75084E-04-2.34725E-04
 -1       160 3.71221E-06-3.86483E-04 4.59523E-07
 -1       182 5.33479E-06-1.80119E-03-2.76822E-04
 -1       183-2.78891E-08-2.27304E-03-2.88739E-04
 -1       184-5.39212E-06-1.80119E-03-2.76809E-04
 -1       185-1.69286E-08-1.63858E-03-5.21935E-04
 -1       186-4.73682E-07-1.21438E-03-5.80988E-04
 -1       187-7.07109E-09-1.11007E-03-5.88564E-04
 -1       188 4.58811E-07-1.21437E-03-5.80981E-04
 -1       189-1.54489E-09-4.63658E-04-3.44080E-04
 -1       211-1.26739E-04-2.38700E-03-1.32009E-04
 -1       212 1.12427E-05-2.02435E-03-1.98102E-06
 -1       213 1.26097E-04-2.36372E-03 1.27548E-04
 -1       214 1.11406E-05-1.74525E-03-6.02622E-06
 -1       215 2.21395E-05-9.75083E-04-2.34710E-04
 -1       216-8.26122E-06-1.00128E-03-2.74723E-06
 -1       217-2.46183E-05-9.78053E-04 2.32922E-04
 -1       218-3.71776E-06-3.86483E-04 4.66777E-07
 -1       250-2.96862E-08-2.39563E-03 1.25217E-04
 -1       251 2.70606E-06-1.51615E-03-9.94920E-07
 -1       252-3.07781E-08-1.91984E-03-1.46216E-06
 -1       253-2.76583E-06-1.51615E-03-1.00924E-06
 -1       254-2.95590E-08-2.42676E-03-1.32736E-04
 -1       255-1.68717E-08-1.69477E-03-3.01072E-06
 -1       256-7.84730E-09-9.76837E-04 2.55779E-04
 -1       257-3.83220E-06-1.12837E-03-1.14477E-06
 -1       258-8.25135E-09-1.02403E-03-1.38935E-06
 -1       259 3.81614E-06-1.12837E-03-1.15182E-06
 -1       260-7.79333E-09-9.78370E-04-2.57936E-04
 -1       261-1.92874E-09-4.34658E-04-1.80038E-07
 -3
    1PSTEP                         2           2           1          
  100CL  102 4.00000E-02          81                     1    2           1
 -4  DISP        4    1
 -5  D1          1    2    1    0
 -5  D2          1    2    2    0
 -5  D3          1    2    3    0
 -5  ALL         1    2    0    0    1ALL
 -1         5 0.00000E+00 0.00000E+00 0.00000E+00
 -1         6 0.00000E+00 0.00000E+00 0.00000E+00
 -1         7 0.00000E+00 0.00000E+00 0.00000E+00
 -1         8 0.00000E+00 0.00000E+00 0.00000E+00
 -1        21 0.00000E+00 0.00000E+00 0.00000E+00
 -1        22 0.00000E+00 0.00000E+00 0.00000E+00
 -1        23 0.00000E+00 0.00000E+00 0.00000E+00
 -1        24 0.00000E+00 0.00000E+00 0.00000E+00
 -1        25 0.00000E+00 0.00000E+00 0.00000E+00
 -1        26 0.00000E+00 0.00000E+00 0.00000E+00
 -1        27 0.00000E+00 0.00000E+00 0.00000E+00
 -1        28 0.00000E+00 0.00000E+00 0.00000E+00
 -1        29 0.00000E+00 0.00000E+00 0.00000E+00
 -1        30 0.00000E+00 0.00000E+00 0.00000E+00
 -1        31 0.00000E+00 0.00000E+00 0.00000E+00
 -1        32 0.00000E+00 0.00000E+00 0.00000E+00
 -1        44-1.56465E-04 1.60488E-03-2.33917E-04
 -1        45-3.76469E-05 1.24793E-03-3.77185E-04
 -1        46 4.24590E-05 9.14022E-04-4.32114E-04
 -1        47-5.33334E-05 3.70331E-04-2.84031E-04
 -1        48 5.33318E-05 3.70326E-04-2.84039E-04
 -1        49-4.24476E-05 9.14049E-04-4.32144E-04
 -1        50 3.76927E-05 1.24788E-03-3.77141E-04
 -1        51 1.56583E-04 1.60482E-03-2.33922E-04
 -1        74 1.50236E-04 1.61439E-03 2.34144E-04
 -1        75 3.37375E-05 1.25274E-03 3.77126E-04
 -1        76-4.08975E-05 9.12207E-04 4.32145E-04
 -1        77 5.44660E-05 3.68849E-04 2.84133E-04
 -1        89-1.50230E-04 1.61448E-03 2.34159E-04
 -1        90-3.36691E-05 1.25272E-03 3.77122E-04
 -1        91 4.08472E-05 9.12210E-04 4.32131E-04
 -1        92-5.44650E-05 3.68835E-04 2.84106E-04
 -1        98 0.00000E+00 0.00000E+00 0.00000E+00
 -1        99 0.00000E+00 0.00000E+00 0.00000E+00
 -1       100 0.00000E+00 0.00000E+00 0.00000E+00
 -1       101 0.00000E+00 0.00000E+00 0.00000E+00
 -1       102 0.00000E+00 0.00000E+00 0.00000E+00
 -1       124 9.66305E-06 1.48085E-03-2.20519E-04
 -1       125 1.70959E-08 1.76766E-03-2.31252E-04
 -1       126-9.60220E-06 1.48086E-03-2.20502E-04
 -1       127 2.03799E-08 1.30132E-03-4.17818E-04
 -1       128-4.39691E-06 9.58838E-04-4.63515E-04
 -1       129 5.54670E-09 8.90168E-04-4.72609E-04
 -1       130 4.41262E-06 9.58830E-04-4.63508E-04
 -1       131 7.26399E-10 3.75422E-04-2.76043E-04
 -1       153 1.27065E-04 1.91198E-03-1.03914E-04
 -1       154-2.43234E-07 1.69580E-03 5.56973E-08
 -1       155-1.25377E-04 1.91991E-03 1.04171E-04
 -1       156 6.32466E-07 1.40702E-03 6.31032E-07
 -1       157-2.55158E-05 7.93853E-04-1.86097E-04
 -1       158-1.34334E-07 8.09705E-04 2.61149E-07
 -1       159 2.50440E-05 7.92309E-04 1.86159E-04
 -1       160-2.29832E-07 3.07963E-04-2.75392E-08
 -1       182 2.94542E-06 1.47717E-03 2.20765E-04
 -1       183 1.10481E-07 1.77321E-03 2.31401E-04
 -1       184-2.85180E-06 1.47717E-03 2.20717E-04
 -1       185-1.89066E-08 1.30251E-03 4.17137E-04
 -1       186-2.83303E-06 9.60217E-04 4.63707E-04
 -1       187 2.53288E-08 8.89742E-04 4.72500E-04
 -1       188 2.83833E-06 9.60229E-04 4.63712E-04
 -1       189-7.30373E-09 3.75419E-04 2.76086E-04
 -1       211 1.25397E-04 1.91992E-03 1.04129E-04
 -1       212 3.07368E-07 1.69566E-03 1.06351E-07
 -1       213-1.27013E-04 1.91186E-03-1.03950E-04
 -1       214-6.42269E-07 1.40703E-03 6.18458E-07
 -1       215-2.50515E-05 7.92287E-04 1.86163E-04
 -1       216 1.63461E-07 8.09669E-04 2.47478E-07
 -1       217 2.55439E-05 7.93853E-04-1.86104E-04
 -1       218 2.29862E-07 3.07963E-04-2.58491E-08
 -1       250-1.24158E-08 1.91388E-03-1.02955E-04
 -1       251-2.70937E-06 1.20932E-03 6.67932E-08
 -1       252-4.51703E-08 1.54187E-03 1.12812E-07
 -1       253 2.70417E-06 1.20939E-03-6.05934E-09
 -1       254 4.40997E-08 1.91051E-03 1.03406E-04
 -1       255 1.66873E-08 1.37507E-03 1.56309E-07
 -1       256-2.72745E-09 7.82642E-04-2.07248E-04
 -1       257 7.22307E-07 9.14179E-04 4.33468E-08
 -1       258-1.00658E-08 8.12517E-04 7.55864E-08
 -1       259-7.21186E-07 9.14196E-04 6.15075E-08
 -1       260 5.64750E-09 7.83762E-04 2.07393E-04
 -1       261 5.07236E-09 3.48593E-04 7.84180E-09
 -3
    1PSTEP                         3           3           1          
  100CL  103 6.00000E-02          81                     1    3           1
 -4  DISP        4    1
 -5  D1          1    2    1    0
 -5  D2          1    2    2    0
 -5  D3          1    2    3    0
 -5  ALL         1    2    0    0    1ALL
 -1         5 0.00000E+00 0.00000E+00 0.00000E+00
 -1         6 0.00000E+00 0.00000E+00 0.00000E+00
 -1         7 0.00000E+00 0.00000E+00 0.00000E+00
 -1         8 0.00000E+00 0.00000E+00 0.00000E+00
 -1        21 0.00000E+00 0.00000E+00 0.00000E+00
 -1        22 0.00000E+00 0.00000E+00 0.00000E+00
 -1        23 0.00000E+00 0.00000E+00 0.00000E+00
 -1        24 0.00000E+00 0.00000E+00 0.00000E+00
 -1        25 0.00000E+00 0.00000E+00 0.00000E+00
 -1        26 0.00000E+00 0.00000E+00 0.00000E+00
 -1        27 0.00000E+00 0.00000E+00 0.00000E+00
 -1        28 0.00000E+00 0.00000E+00 0.00000E+00
 -1        29 0.00000E+00 0.00000E+00 0.00000E+00
 -1        30 0.00000E+00 0.00000E+00 0.00000E+00
 -1        31 0.00000E+00 0.00000E+00 0.00000E+00
 -1        32 0.00000E+00 0.00000E+00 0.00000E+00
 -1        44 1.23010E-04-1.27223E-03 1.85341E-04
 -1        45 2.89879E-05-9.88812E-04 2.98958E-04
 -1        46-3.35175E-05-7.24498E-04 3.42137E-04
 -1        47 4.23837E-05-2.93563E-04 2.25158E-04
 -1        48-4.23742E-05-2.93572E-04 2.25194E-04
 -1        49 3.35629E-05-7.24531E-04 3.42186E-04
 -1        50-2.90674E-05-9.88788E-04 2.98903E-04
 -1        51-1.23132E-04-1.27208E-03 1.85334E-04
 -1        74-1.20527E-04-1.27565E-03-1.85518E-04
 -1        75-2.72325E-05-9.90491E-04-2.99090E-04
 -1        76 3.27454E-05-7.23897E-04-3.42148E-04
 -1        77-4.28541E-05-2.93046E-04-2.25158E-04
 -1        89 1.20428E-04-1.27582E-03-1.85538E-04
 -1        90 2.71157E-05-9.90553E-04-2.99134E-04
 -1        91-3.27034E-05-7.23880E-04-3.42126E-04
 -1        92 4.28509E-05-2.93042E-04-2.25130E-04
 -1        98 0.00000E+00 0.00000E+00 0.00000E+00
 -1        99 0.00000E+00 0.00000E+00 0.00000E+00
 -1       100 0.00000E+00 0.00000E+00 0.00000E+00
 -1       101 0.00000E+00 0.00000E+00 0.00000E+00
 -1       102 0.00000E+00 0.00000E+00 0.00000E+00
 -1       124-5.98001E-06-1.17314E-03 1.74904E-04
 -1       125-9.69486E-08-1.40046E-03 1.83427E-04
 -1       126 5.85972E-06-1.17314E-03 1.74819E-04
 -1       127 1.17375E-08-1.03148E-03 3.30535E-04
 -1       128 3.18340E-06-7.59612E-04 3.67177E-04
 -1       129-1.92419E-08-7.04722E-04 3.74381E-04
 -1       130-3.19017E-06-7.59612E-04 3.67173E-04
 -1       131 8.86302E-09-2.97440E-04 2.18680E-04
 -1       153-1.01107E-04-1.51880E-03 8.23486E-05
 -1       154 4.51192E-07-1.34697E-03 6.83135E-08
 -1       155 1.00038E-04-1.52197E-03-8.24570E-05
 -1       156-1.65769E-07-1.11433E-03-1.53598E-07
 -1       157 2.02873E-05-6.29022E-04 1.47302E-04
 -1       158-2.26860E-08-6.42208E-04-1.01274E-07
 -1       159-2.01029E-05-6.28398E-04-1.47305E-04
 -1       160 4.05310E-08-2.43977E-04-3.49489E-09
 -1       182-3.53546E-06-1.17196E-03-1.74847E-04
 -1       183-1.34168E-07-1.40176E-03-1.83542E-04
 -1       184 3.38733E-06-1.17195E-03-1.74811E-04
 -1       185-4.71344E-10-1.03166E-03-3.30118E-04
 -1       186 2.52581E-06-7.59903E-04-3.67242E-04
 -1       187-3.63916E-08-7.04346E-04-3.74253E-04
 -1       188-2.55110E-06-7.59912E-04-3.67244E-04
 -1       189 5.48356E-09-2.97443E-04-2.18664E-04
 -1       211-1.00069E-04-1.52211E-03-8.24333E-05
 -1       212-5.30745E-07-1.34698E-03-6.58848E-08
 -1       213 1.01060E-04-1.51868E-03 8.24506E-05
 -1       214 1.96390E-07-1.11434E-03-1.41125E-07
 -1       215 2.00890E-05-6.28385E-04-1.47307E-04
 -1       216-2.40593E-08-6.42219E-04-7.91771E-08
 -1       217-2.02989E-05-6.29055E-04 1.47297E-04
 -1       218-3.89901E-08-2.43982E-04-8.98272E-09
 -1       250-8.68198E-09-1.51241E-03 8.17476E-05
 -1       251 8.97337E-07-9.57937E-04-1.06371E-07
 -1       252 1.03827E-07-1.22099E-03 1.69283E-08
 -1       253-8.51247E-07-9.57929E-04 4.59507E-08
 -1       254-2.98483E-08-1.51054E-03-8.18582E-05
 -1       255-2.41104E-08-1.09049E-03-2.66404E-08
 -1       256 4.07839E-09-6.20155E-04 1.64361E-04
 -1       257-2.41584E-07-7.24510E-04 3.12167E-08
 -1       258 2.21970E-08-6.42678E-04 1.22744E-09
 -1       259 2.47349E-07-7.24505E-04-2.65094E-10
 -1       260-4.42626E-09-6.20524E-04-1.64361E-04
 -1       261-9.29535E-09-2.76004E-04-1.68913E-08
 -3
    1PSTEP                         4           4           1          
  100CL  104 8.00000E-02          81                     1    4           1
 -4  DISP        4    1
 -5  D1          1    2    1    0
 -5  D2          1    2    2    0
 -5  D3          1    2    3    0
 -5  ALL         1    2    0    0    1ALL
 -1         5 0.00000E+00 0.00000E+00 0.00000E+00
 -1         6 0.00000E+00 0.00000E+00 0.00000E+00
 -1         7 0.00000E+00 0.00000E+00 0.00000E+00
 -1         8 0.00000E+00 0.00000E+00 0.00000E+00
 -1        21 0.00000E+00 0.00000E+00 0.00000E+00
 -1        22 0.00000E+00 0.00000E+00 0.00000E+00
 -1        23 0.00000E+00 0.00000E+00 0.00000E+00
 -1        24 0.00000E+00 0.00000E+00 0.00000E+00
 -1        25 0.00000E+00 0.00000E+00 0.00000E+00
 -1        26 0.00000E+00 0.00000E+00 0.00000E+00
 -1        27 0.00000E+00 0.00000E+00 0.00000E+00
 -1        28 0.00000E+00 0.00000E+00 0.00000E+00
 -1        29 0.00000E+00 0.00000E+00 0.00000E+00
 -1        30 0.00000E+00 0.00000E+00 0.00000E+00
 -1        31 0.00000E+00 0.00000E+00 0.00000E+00
 -1        32 0.00000E+00 0.00000E+00 0.00000E+00
 -1        44-9.52538E-05 9.87683E-04-1.43941E-04
 -1        45-2.21430E-05 7.67671E-04-2.31931E-04
 -1        46 2.58865E-05 5.62221E-04-2.65486E-04
 -1        47-3.29836E-05 2.27749E-04-1.74735E-04
 -1        48 3.29828E-05 2.27756E-04-1.74750E-04
 -1        49-2.59028E-05 5.62218E-04-2.65506E-04
 -1        50 2.21656E-05 7.67701E-04-2.31928E-04
 -1        51 9.52317E-05 9.87649E-04-1.43899E-04
 -1        74 9.49725E-05 9.87804E-04 1.43934E-04
 -1        75 2.20191E-05 7.67758E-04 2.31930E-04
 -1        76-2.58573E-05 5.62240E-04 2.65508E-04
 -1        77 3.30258E-05 2.27730E-04 1.74745E-04
 -1        89-9.49130E-05 9.87807E-04 1.43902E-04
 -1        90-2.19917E-05 7.67791E-04 2.31924E-04
 -1        91 2.58778E-05 5.62235E-04 2.65509E-04
 -1        92-3.30196E-05 2.27734E-04 1.74747E-04
 -1        98 0.00000E+00 0.00000E+00 0.00000E+00
 -1        99 0.00000E+00 0.00000E+00 0.00000E+00
 -1       100 0.00000E+00 0.00000E+00 0.00000E+00
 -1       101 0.00000E+00 0.00000E+00 0.00000E+00
 -1       102 0.00000E+00 0.00000E+00 0.00000E+00
 -1       124 3.90760E-06 9.10127E-04-1.35642E-04
 -1       125 2.70572E-08 1.08712E-03-1.42341E-04
 -1       126-3.89371E-06 9.10135E-04-1.35611E-04
 -1       127-8.61802E-09 8.00496E-04-2.56454E-04
 -1       128-2.27557E-06 5.89594E-04-2.84961E-04
 -1       129 6.59797E-09 5.46865E-04-2.90494E-04
 -1       130 2.27481E-06 5.89597E-04-2.84961E-04
 -1       131-2.58027E-09 2.30887E-04-1.69710E-04
 -1       153 7.82745E-05 1.17914E-03-6.39270E-05
 -1       154-9.22636E-08 1.04512E-03-9.66913E-09
 -1       155-7.81387E-05 1.17962E-03 6.39488E-05
 -1       156-1.70124E-08 8.64971E-04 6.15035E-09
 -1       157-1.57049E-05 4.88005E-04-1.14318E-04
 -1       158 4.38451E-08 4.98282E-04 9.24724E-09
 -1       159 1.56868E-05 4.87917E-04 1.14323E-04
 -1       160 7.11660E-09 1.89346E-04 3.72927E-09
 -1       182 3.36473E-06 9.10108E-04 1.35630E-04
 -1       183 1.54795E-08 1.08706E-03 1.42314E-04
 -1       184-3.32187E-06 9.10103E-04 1.35643E-04
 -1       185 1.91574E-08 8.00449E-04 2.56421E-04
 -1       186-2.15908E-06 5.89599E-04 2.84963E-04
 -1       187 7.74191E-09 5.46853E-04 2.90486E-04
 -1       188 2.17753E-06 5.89598E-04 2.84960E-04
 -1       189 3.43488E-09 2.30907E-04 1.69714E-04
 -1       211 7.81638E-05 1.17966E-03 6.39670E-05
 -1       212 1.02798E-07 1.04518E-03 1.94713E-09
 -1       213-7.82798E-05 1.17915E-03-6.39551E-05
 -1       214 3.42679E-08 8.64968E-04 5.14861E-10
 -1       215-1.56709E-05 4.87926E-04 1.14313E-04
 -1       216-3.60445E-08 4.98305E-04 9.14977E-10
 -1       217 1.57011E-05 4.88016E-04-1.14320E-04
 -1       218-3.73521E-09 1.89349E-04-8.29166E-10
 -1       250 1.86439E-08 1.17339E-03-6.34934E-05
 -1       251-1.73001E-07 7.43291E-04-3.68043E-09
 -1       252 7.21515E-09 9.47877E-04-9.88033E-09
 -1       253 1.87445E-07 7.43257E-04-4.78338E-09
 -1       254 1.23631E-08 1.17288E-03 6.34620E-05
 -1       255 6.60255E-09 8.46191E-04 6.35990E-09
 -1       256 5.41383E-09 4.81470E-04-1.27533E-04
 -1       257 3.46087E-08 5.62335E-04-1.66122E-09
 -1       258 4.68237E-09 4.98905E-04 7.85150E-10
 -1       259-2.66497E-08 5.62324E-04 1.46836E-09
 -1       260 6.09458E-09 4.81571E-04 1.27538E-04
 -1       261 1.60579E-09 2.14225E-04-2.25542E-09
 -3
    1PSTEP                         5           5           1          
  100CL  105 1.00000E-01          81                     1    5           1
 -4  DISP        4    1
 -5  D1          1    2    1    0
 -5  D2          1    2    2    0
 -5  D3          1    2    3    0
 -5  ALL         1    2    0    0    1ALL
 -1         5 0.00000E+00 0.00000E+00 0.00000E+00
 -1         6 0.00000E+00 0.00000E+00 0.00000E+00
 -1         7 0.00000E+00 0.00000E+00 0.00000E+00
 -1         8 0.00000E+00 0.00000E+00 0.00000E+00
 -1        21 0.00000E+00 0.00000E+00 0.00000E+00
 -1        22 0.00000E+00 0.00000E+00 0.00000E+00
 -1        23 0.00000E+00 0.00000E+00 0.00000E+00
 -1        24 0.00000E+00 0.00000E+00 0.00000E+00
 -1        25 0.00000E+00 0.00000E+00 0.00000E+00
 -1        26 0.00000E+00 0.00000E+00 0.00000E+00
 -1        27 0.00000E+00 0.00000E+00 0.00000E+00
 -1        28 0.00000E+00 0.00000E+00 0.00000E+00
 -1        29 0.00000E+00 0.00000E+00 0.00000E+00
 -1        30 0.00000E+00 0.00000E+00 0.00000E+00
 -1        31 0.00000E+00 0.00000E+00 0.00000E+00
 -1        32 0.00000E+00 0.00000E+00 0.00000E+00
 -1        44 7.22002E-05-7.45630E-04 1.08655E-04
 -1        45 1.69469E-05-5.79442E-04 1.75181E-04
 -1        46-1.96017E-05-4.24508E-04 2.00480E-04
 -1        47 2.48640E-05-1.71977E-04 1.31941E-04
 -1        48-2.48606E-05-1.71968E-04 1.31908E-04
 -1        49 1.95676E-05-4.24494E-04 2.00445E-04
 -1        50-1.68391E-05-5.79462E-04 1.75203E-04
 -1        51-7.21476E-05-7.45743E-04 1.08685E-04
 -1        74-7.01964E-05-7.47716E-04-1.08682E-04
 -1        75-1.57394E-05-5.80583E-04-1.75183E-04
 -1        76 1.91085E-05-4.24015E-04-2.00437E-04
 -1        77-2.51687E-05-1.71660E-04-1.31916E-04
 -1        89 7.03301E-05-7.47601E-04-1.08691E-04
 -1        90 1.58338E-05-5.80544E-04-1.75155E-04
 -1        91-1.91169E-05-4.24035E-04-2.00476E-04
 -1        92 2.51712E-05-1.71663E-04-1.31943E-04
 -1        98 0.00000E+00 0.00000E+00 0.00000E+00
 -1        99 0.00000E+00 0.00000E+00 0.00000E+00
 -1       100 0.00000E+00 0.00000E+00 0.00000E+00
 -1       101 0.00000E+00 0.00000E+00 0.00000E+00
 -1       102 0.00000E+00 0.00000E+00 0.00000E+00
 -1       124-3.45758E-06-6.87321E-04 1.02393E-04
 -1       125 1.16010E-07-8.20746E-04 1.07481E-04
 -1       126 3.57601E-06-6.87330E-04 1.02453E-04
 -1       127-2.14549E-09-6.04523E-04 1.93679E-04
 -1       128 1.84944E-06-4.45099E-04 2.15162E-04
 -1       129 3.34540E-08-4.12823E-04 2.19369E-04
 -1       130-1.82632E-06-4.45094E-04 2.15162E-04
 -1       131-4.84094E-09-1.74268E-04 1.28132E-04
 -1       153-5.92665E-05-8.90113E-04 4.82872E-05
 -1       154 3.74925E-07-7.89503E-04-2.40456E-08
 -1       155 5.86662E-05-8.91871E-04-4.82574E-05
 -1       156-4.35425E-08-6.53129E-04-9.82793E-08
 -1       157 1.19310E-05-3.68511E-04 8.63184E-05
 -1       158-2.88872E-08-3.76172E-04-3.60184E-08
 -1       159-1.17757E-05-3.68114E-04-8.62943E-05
 -1       160 1.66927E-08-1.42910E-04-3.55896E-09
 -1       182-1.77459E-06-6.86632E-04-1.02414E-04
 -1       183 9.17471E-08-8.21558E-04-1.07520E-04
 -1       184 1.90770E-06-6.86630E-04-1.02464E-04
 -1       185 1.31911E-08-6.04484E-04-1.93461E-04
 -1       186 1.46124E-06-4.45250E-04-2.15172E-04
 -1       187 2.48570E-08-4.12686E-04-2.19281E-04
 -1       188-1.43383E-06-4.45249E-04-2.15179E-04
 -1       189-1.96309E-09-1.74276E-04-1.28122E-04
 -1       211-5.86071E-05-8.91758E-04-4.83155E-05
 -1       212-3.07466E-07-7.89467E-04 7.21206E-08
 -1       213 5.92871E-05-8.90190E-04 4.82558E-05
 -1       214 5.57707E-08-6.53126E-04-1.15917E-07
 -1       215 1.18004E-05-3.68128E-04-8.63036E-05
 -1       216 7.01652E-08-3.76165E-04-6.31412E-08
 -1       217-1.19194E-05-3.68493E-04 8.63103E-05
 -1       218-1.16118E-08-1.42909E-04-7.78263E-09
 -1       250 4.62995E-08-8.86441E-04 4.79492E-05
 -1       251 4.86792E-07-5.61158E-04 6.46313E-08
 -1       252-4.64121E-08-7.15949E-04 2.14400E-08
 -1       253-4.85929E-07-5.61176E-04-2.66845E-08
 -1       254 3.13311E-08-8.85465E-04-4.79451E-05
 -1       255 2.61066E-08-6.39021E-04-9.59187E-09
 -1       256 1.22352E-08-3.63331E-04 9.62970E-05
 -1       257-1.13049E-07-4.24563E-04-8.72638E-09
 -1       258-4.89013E-09-3.76545E-04-3.55428E-09
 -1       259 1.23744E-07-4.24567E-04 1.53096E-08
 -1       260 8.29552E-09-3.63566E-04-9.63125E-05
 -1       261 8.26091E-09-1.61687E-04 7.60779E-10
 -3
    1PSTEP                         6           6           1          
  100CL  106 1.20000E-01          81                     1    6           1
 -4  DISP        4    1
 -5  D1          1    2    1    0
 -5  D2          1    2    2    0
 -5  D3          1    2    3    0
 -5  ALL         1    2    0    0    1ALL
 -1         5 0.00000E+00 0.00000E+00 0.00000E+00
 -1         6 0.00000E+00 0.00000E+00 0.00000E+00
 -1         7 0.00000E+00 0.00000E+00 0.00000E+00
 -1         8 0.00000E+00 0.00000E+00 0.00000E+00
 -1        21 0.00000E+00 0.00000E+00 0.00000E+00
 -1        22 0.00000E+00 0.00000E+00 0.00000E+00
 -1        23 0.00000E+00 0.00000E+00 0.00000E+00
 -1        24 0.00000E+00 0.00000E+00 0.00000E+00
 -1        25 0.00000E+00 0.00000E+00 0.00000E+00
 -1        26 0.00000E+00 0.00000E+00 0.00000E+00
 -1        27 0.00000E+00 0.00000E+00 0.00000E+00
 -1        28 0.00000E+00 0.00000E+00 0.00000E+00
 -1        29 0.00000E+00 0.00000E+00 0.00000E+00
 -1        30 0.00000E+00 0.00000E+00 0.00000E+00
 -1        31 0.00000E+00 0.00000E+00 0.00000E+00
 -1        32 0.00000E+00 0.00000E+00 0.00000E+00
 -1        44-5.09284E-05 5.41762E-04-7.88070E-05
 -1        45-1.15016E-05 4.20730E-04-1.26992E-04
 -1        46 1.39469E-05 3.07638E-04-1.45345E-04
 -1        47-1.82277E-05 1.24520E-04-9.56491E-05