    1C
    1UUSER                                                              
    1UDATE              12.july.2018                                    
    1UTIME              16:10:00                                        
    1UHOST                                                              
    1UPGM               CalculiX                                        
    1UVERSION           Version 2.13                             
    1UCOMPILETIME       jue jun 14 00:40:39 CEST 2018                    
    1UDIR                                                               
    1UDBN                                                               
    1UMAT    1EL                                                        
    2C                            81                                     1
 -1         5 0.00000E+00 0.00000E+00 8.00000E+00
 -1         6 1.00000E+00 0.00000E+00 8.00000E+00
 -1         7 1.00000E+00 1.00000E+00 8.00000E+00
 -1         8 0.00000E+00 1.00000E+00 8.00000E+00
 -1        21 2.50000E-01 0.00000E+00 8.00000E+00
 -1        22 5.00000E-01 0.00000E+00 8.00000E+00
 -1        23 7.50000E-01 0.00000E+00 8.00000E+00
 -1        24 1.00000E+00 2.50000E-01 8.00000E+00
 -1        25 1.00000E+00 5.00000E-01 8.00000E+00
 -1        26 1.00000E+00 7.50000E-01 8.00000E+00
 -1        27 7.50000E-01 1.00000E+00 8.00000E+00
 -1        28 5.00000E-01 1.00000E+00 8.00000E+00
 -1        29 2.50000E-01 1.00000E+00 8.00000E+00
 -1        30 0.00000E+00 7.50000E-01 8.00000E+00
 -1        31 0.00000E+00 5.00000E-01 8.00000E+00
 -1        32 0.00000E+00 2.50000E-01 8.00000E+00
 -1        44 1.00000E+00 0.00000E+00 6.00000E+00
 -1        45 1.00000E+00 0.00000E+00 6.50000E+00
 -1        46 1.00000E+00 0.00000E+00 7.00000E+00
 -1        47 1.00000E+00 0.00000E+00 7.50000E+00
 -1        48 0.00000E+00 0.00000E+00 7.50000E+00
 -1        49 0.00000E+00 0.00000E+00 7.00000E+00
 -1        50 0.00000E+00 0.00000E+00 6.50000E+00
 -1        51 0.00000E+00 0.00000E+00 6.00000E+00
 -1        74 1.00000E+00 1.00000E+00 6.00000E+00
 -1        75 1.00000E+00 1.00000E+00 6.50000E+00
 -1        76 1.00000E+00 1.00000E+00 7.00000E+00
 -1        77 1.00000E+00 1.00000E+00 7.50000E+00
 -1        89 0.00000E+00 1.00000E+00 6.00000E+00
 -1        90 0.00000E+00 1.00000E+00 6.50000E+00
 -1        91 0.00000E+00 1.00000E+00 7.00000E+00
 -1        92 0.00000E+00 1.00000E+00 7.50000E+00
 -1        98 5.00000E-01 2.50000E-01 8.00000E+00
 -1        99 2.50000E-01 5.00000E-01 8.00000E+00
 -1       100 5.00000E-01 5.00000E-01 8.00000E+00
 -1       101 7.50000E-01 5.00000E-01 8.00000E+00
 -1       102 5.00000E-01 7.50000E-01 8.00000E+00
 -1       124 2.50000E-01 0.00000E+00 6.00000E+00
 -1       125 5.00000E-01 0.00000E+00 6.00000E+00
 -1       126 7.50000E-01 0.00000E+00 6.00000E+00
 -1       127 5.00000E-01 0.00000E+00 6.50000E+00
 -1       128 2.50000E-01 0.00000E+00 7.00000E+00
 -1       129 5.00000E-01 0.00000E+00 7.00000E+00
 -1       130 7.50000E-01 0.00000E+00 7.00000E+00
 -1       131 5.00000E-01 0.00000E+00 7.50000E+00
 -1       153 1.00000E+00 2.50000E-01 6.00000E+00
 -1       154 1.00000E+00 5.00000E-01 6.00000E+00
 -1       155 1.00000E+00 7.50000E-01 6.00000E+00
 -1       156 1.00000E+00 5.00000E-01 6.50000E+00
 -1       157 1.00000E+00 2.50000E-01 7.00000E+00
 -1       158 1.00000E+00 5.00000E-01 7.00000E+00
 -1       159 1.00000E+00 7.50000E-01 7.00000E+00
 -1       160 1.00000E+00 5.00000E-01 7.50000E+00
 -1       182 7.50000E-01 1.00000E+00 6.00000E+00
 -1       183 5.00000E-01 1.00000E+00 6.00000E+00
 -1       184 2.50000E-01 1.00000E+00 6.00000E+00
 -1       185 5.00000E-01 1.00000E+00 6.50000E+00
 -1       186 7.50000E-01 1.00000E+00 7.00000E+00
 -1       187 5.00000E-01 1.00000E+00 7.00000E+00
 -1       188 2.50000E-01 1.00000E+00 7.00000E+00
 -1       189 5.00000E-01 1.00000E+00 7.50000E+00
 -1       211 0.00000E+00 7.50000E-01 6.00000E+00
 -1       212 0.00000E+00 5.00000E-01 6.00000E+00
 -1       213 0.00000E+00 2.50000E-01 6.00000E+00
 -1       214 0.00000E+00 5.00000E-01 6.50000E+00
 -1       215 0.00000E+00 7.50000E-01 7.00000E+00
 -1       216 0.00000E+00 5.00000E-01 7.00000E+00
 -1       217 0.00000E+00 2.50000E-01 7.00000E+00
 -1       218 0.00000E+00 5.00000E-01 7.50000E+00
 -1       250 5.00000E-01 2.50000E-01 6.00000E+00
 -1       251 2.50000E-01 5.00000E-01 6.00000E+00
 -1       252 5.00000E-01 5.00000E-01 6.00000E+00
 -1       253 7.50000E-01 5.00000E-01 6.00000E+00
 -1       254 5.00000E-01 7.50000E-01 6.00000E+00
 -1       255 5.00000E-01 5.00000E-01 6.50000E+00
 -1       256 5.00000E-01 2.50000E-01 7.00000E+00
 -1       257 2.50000E-01 5.00000E-01 7.00000E+00
 -1       258 5.00000E-01 5.00000E-01 7.00000E+00
 -1       259 7.50000E-01 5.00000E-01 7.00000E+00
 -1       260 5.00000E-01 7.50000E-01 7.00000E+00
 -1       261 5.00000E-01 5.00000E-01 7.50000E+00
 -3
    3C                             8                                     1
 -1        25    4    0    1
 -2        51       125       252       212        49       129       258       216       124       250
 -2       251       213        50       127       255       214       128       256       257       217
 -1        26    4    0    1
 -2       125        44       154       252       129        46       158       258       126       153
 -2       253       250       127        45       156       255       130       157       259       256
 -1        27    4    0    1
 -2       212       252       183        89       216       258       187        91       251       254
 -2       184       211       214       255       185        90       257       260       188       215
 -1        28    4    0    1
 -2       252       154        74       183       258       158        76       187       253       155
 -2       182       254       255       156        75       185       259       159       186       260
 -1        29    4    0    1
 -2        49       129       258       216         5        22       100        31       128       256
 -2       257       217        48       131       261       218        21        98        99        32
 -1        30    4    0    1
 -2       129        46       158       258        22         6        25       100       130       157
 -2       259       256       131        47       160       261        23        24       101        98
 -1        31    4    0    1
 -2       216       258       187        91        31       100        28         8       257       260
 -2       188       215       218       261       189        92        99       102        29        30
 -1        32    4    0    1
 -2       258       158        76       187       100        25         7        28       259       159
 -2       186       260       261       160        77       189       101        26        27       102
 -3
    1PSTEP                         1           1           1          
  100CL  101 2.00000E-02          81                     1    1           1
 -4  DISP        4    1
 -5  D1          1    2    1    0
 -5  D2          1    2    2    0
 -5  D3          1    2    3    0
 -5  ALL         1    2    0    0    1ALL
 -1         5 0.00000E+00 0.00000E+00 0.00000E+00
 -1         6 0.00000E+00 0.00000E+00 0.00000E+00
 -1         7 0.00000E+00 0.00000E+00 0.00000E+00
 -1         8 0.00000E+00 0.00000E+00 0.00000E+00
 -1        21 0.00000E+00 0.00000E+00 0.00000E+00
 -1        22 0.00000E+00 0.00000E+00 0.00000E+00
 -1        23 0.00000E+00 0.00000E+00 0.00000E+00
 -1        24 0.00000E+00 0.00000E+00 0.00000E+00
 -1        25 0.00000E+00 0.00000E+00 0.00000E+00
 -1        26 0.00000E+00 0.00000E+00 0.00000E+00
 -1        27 0.00000E+00 0.00000E+00 0.00000E+00
 -1        28 0.00000E+00 0.00000E+00 0.00000E+00
 -1        29 0.00000E+00 0.00000E+00 0.00000E+00
 -1        30 0.00000E+00 0.00000E+00 0.00000E+00
 -1        31 0.00000E+00 0.00000E+00 0.00000E+00
 -1        32 0.00000E+00 0.00000E+00 0.00000E+00
 -1        44 5.96525E-05-1.99607E-03 2.77131E-04
 -1        45 7.94840E-06-1.52040E-03 4.88137E-04
 -1        46-3.66366E-05-1.10672E-03 5.13010E-04
 -1        47 6.47022E-05-4.61133E-04 3.44924E-04
 -1        48-6.47022E-05-4.61133E-04 3.44925E-04
 -1        49 3.66370E-05-1.10672E-03 5.13010E-04
 -1        50-7.94872E-06-1.52040E-03 4.88136E-04
 -1        51-5.96498E-05-1.99607E-03 2.77127E-04
 -1        74-5.14400E-05-2.02746E-03-2.80722E-04
 -1        75-2.37379E-06-1.53204E-03-4.90279E-04
 -1        76 3.21811E-05-1.10414E-03-5.14349E-04
 -1        77-6.78836E-05-4.55024E-04-3.45738E-04
 -1        89 5.14373E-05-2.02746E-03-2.80717E-04
 -1        90 2.37412E-06-1.53204E-03-4.90277E-04
 -1        91-3.21815E-05-1.10414E-03-5.14349E-04
 -1        92 6.78837E-05-4.55024E-04-3.45738E-04
 -1        98 0.00000E+00 0.00000E+00 0.00000E+00
 -1        99 0.00000E+00 0.00000E+00 0.00000E+00
 -1       100 0.00000E+00 0.00000E+00 0.00000E+00
 -1       101 0.00000E+00 0.00000E+00 0.00000E+00
 -1       102 0.00000E+00 0.00000E+00 0.00000E+00
 -1       124-6.12350E-06-1.80918E-03 2.63124E-04
 -1       125 4.01769E-10-2.01124E-03 2.79050E-04
 -1       126 6.12501E-06-1.80918E-03 2.63126E-04
 -1       127-6.40635E-11-1.53470E-03 4.55173E-04
 -1       128 1.54889E-05-1.15381E-03 5.50389E-04
 -1       129-2.98384E-12-1.09883E-03 5.62906E-04
 -1       130-1.54887E-05-1.15381E-03 5.50389E-04
 -1       131 1.59681E-11-4.60093E-04 3.29517E-04
 -1       153-1.01396E-04-2.40657E-03 1.26787E-04
 -1       154-2.91434E-06-2.14648E-03-9.29170E-07
 -1       155 1.01552E-04-2.41690E-03-1.31093E-04
 -1       156-1.98927E-06-1.58883E-03-2.83042E-06
 -1       157 1.47332E-05-1.00781E-03 2.16246E-04
 -1       158 3.05624E-06-1.08458E-03-3.95642E-07
 -1       159-1.14749E-05-1.00856E-03-2.16621E-04
 -1       160 1.31027E-06-3.91075E-04 7.68778E-07
 -1       182-6.69753E-06-1.79635E-03-2.64697E-04
 -1       183-4.04921E-10-2.03774E-03-2.80600E-04
 -1       184 6.69601E-06-1.79635E-03-2.64695E-04
 -1       185 5.85866E-11-1.54916E-03-4.55308E-04
 -1       186 1.45943E-05-1.16804E-03-5.54270E-04
 -1       187 1.66302E-12-1.11029E-03-5.67543E-04
 -1       188-1.45945E-05-1.16804E-03-5.54270E-04
 -1       189-1.58516E-11-4.62014E-04-3.31257E-04
 -1       211-1.01554E-04-2.41690E-03-1.31091E-04
 -1       212 2.91435E-06-2.14648E-03-9.29172E-07
 -1       213 1.01397E-04-2.40657E-03 1.26785E-04
 -1       214 1.98927E-06-1.58883E-03-2.83042E-06
 -1       215 1.14748E-05-1.00856E-03-2.16621E-04
 -1       216-3.05625E-06-1.08458E-03-3.95641E-07
 -1       217-1.47331E-05-1.00781E-03 2.16246E-04
 -1       218-1.31028E-06-3.91075E-04 7.68777E-07
 -1       250 3.66168E-10-2.03288E-03 1.10476E-04
 -1       251-4.16369E-07-1.52480E-03 3.35280E-06
 -1       252 2.21707E-12-1.54150E-03 1.23144E-06
 -1       253 4.16364E-07-1.52480E-03 3.35281E-06
 -1       254-3.53541E-10-2.04899E-03-1.23200E-04
 -1       255-4.40557E-12-1.69461E-03-1.11459E-06
 -1       256-4.79547E-11-9.47957E-04 2.52060E-04
 -1       257-1.54809E-06-1.09200E-03-1.28932E-06
 -1       258 7.10700E-13-9.35974E-04-1.11803E-06
 -1       259 1.54809E-06-1.09200E-03-1.28932E-06
 -1       260 4.47508E-11-9.52458E-04-2.52308E-04
 -1       261-4.24280E-13-4.35298E-04 8.27749E-08
 -3
    1PSTEP                         2           2           1          
  100CL  102 4.00000E-02          81                     1    2           1
 -4  DISP        4    1
 -5  D1          1    2    1    0
 -5  D2          1    2    2    0
 -5  D3          1    2    3    0
 -5  ALL         1    2    0    0    1ALL
 -1         5 0.00000E+00 0.00000E+00 0.00000E+00
 -1         6 0.00000E+00 0.00000E+00 0.00000E+00
 -1         7 0.00000E+00 0.00000E+00 0.00000E+00
 -1         8 0.00000E+00 0.00000E+00 0.00000E+00
 -1        21 0.00000E+00 0.00000E+00 0.00000E+00
 -1        22 0.00000E+00 0.00000E+00 0.00000E+00
 -1        23 0.00000E+00 0.00000E+00 0.00000E+00
 -1        24 0.00000E+00 0.00000E+00 0.00000E+00
 -1        25 0.00000E+00 0.00000E+00 0.00000E+00
 -1        26 0.00000E+00 0.00000E+00 0.00000E+00
 -1        27 0.00000E+00 0.00000E+00 0.00000E+00
 -1        28 0.00000E+00 0.00000E+00 0.00000E+00
 -1        29 0.00000E+00 0.00000E+00 0.00000E+00
 -1        30 0.00000E+00 0.00000E+00 0.00000E+00
 -1        31 0.00000E+00 0.00000E+00 0.00000E+00
 -1        32 0.00000E+00 0.00000E+00 0.00000E+00
 -1        44-1.48373E-04 1.63965E-03-2.39626E-04
 -1        45-2.75123E-05 1.22549E-03-4.19133E-04
 -1        46 3.13176E-05 9.40083E-04-4.43834E-04
 -1        47-4.69485E-05 3.79986E-04-2.84027E-04
 -1        48 4.69481E-05 3.79985E-04-2.84026E-04
 -1        49-3.13146E-05 9.40086E-04-4.43833E-04
 -1        50 2.75095E-05 1.22549E-03-4.19143E-04
 -1        51 1.48394E-04 1.63967E-03-2.39660E-04
 -1        74 1.40877E-04 1.66457E-03 2.37900E-04
 -1        75 2.15954E-05 1.23693E-03 4.18361E-04
 -1        76-2.78342E-05 9.33529E-04 4.43705E-04
 -1        77 4.88359E-05 3.76030E-04 2.84248E-04
 -1        89-1.40897E-04 1.66459E-03 2.37934E-04
 -1        90-2.15926E-05 1.23693E-03 4.18370E-04
 -1        91 2.78313E-05 9.33532E-04 4.43704E-04
 -1        92-4.88356E-05 3.76029E-04 2.84246E-04
 -1        98 0.00000E+00 0.00000E+00 0.00000E+00
 -1        99 0.00000E+00 0.00000E+00 0.00000E+00
 -1       100 0.00000E+00 0.00000E+00 0.00000E+00
 -1       101 0.00000E+00 0.00000E+00 0.00000E+00
 -1       102 0.00000E+00 0.00000E+00 0.00000E+00
 -1       124 7.47221E-05 1.50903E-03-2.33640E-04
 -1       125 2.81748E-09 1.68111E-03-2.25826E-04
 -1       126-7.47106E-05 1.50902E-03-2.33628E-04
 -1       127-4.44866E-10 1.28688E-03-3.77858E-04
 -1       128-1.84862E-05 9.60750E-04-4.64042E-04
 -1       129-1.39268E-10 8.98053E-04-4.72470E-04
 -1       130 1.84876E-05 9.60749E-04-4.64041E-04
 -1       131 9.42074E-11 3.77288E-04-2.77205E-04
 -1       153 8.18177E-05 1.99196E-03-1.13090E-04
 -1       154 4.29662E-06 1.70596E-03 1.12433E-07
 -1       155-8.20629E-05 1.99852E-03 1.13925E-04
 -1       156 3.05427E-06 1.32608E-03 1.23705E-06
 -1       157-2.16395E-05 8.23704E-04-1.88225E-04
 -1       158-2.23632E-06 8.73950E-04 1.55828E-07
 -1       159 2.12670E-05 8.21993E-04 1.87667E-04
 -1       160-8.31151E-07 3.24861E-04-8.77890E-08
 -1       182 7.60588E-05 1.49478E-03 2.31144E-04
 -1       183-2.81433E-09 1.69800E-03 2.23540E-04
 -1       184-7.60702E-05 1.49480E-03 2.31156E-04
 -1       185 4.52034E-10 1.29517E-03 3.75959E-04
 -1       186-1.80015E-05 9.64030E-04 4.65480E-04
 -1       187 1.40381E-10 8.93856E-04 4.73979E-04
 -1       188 1.80001E-05 9.64031E-04 4.65481E-04
 -1       189-9.39465E-11 3.75271E-04 2.77554E-04
 -1       211 8.20511E-05 1.99853E-03 1.13937E-04
 -1       212-4.29663E-06 1.70597E-03 1.12433E-07
 -1       213-8.18059E-05 1.99197E-03-1.13102E-04
 -1       214-3.05428E-06 1.32608E-03 1.23705E-06
 -1       215-2.12681E-05 8.21994E-04 1.87668E-04
 -1       216 2.23633E-06 8.73950E-04 1.55826E-07
 -1       217 2.16405E-05 8.23705E-04-1.88227E-04
 -1       218 8.31155E-07 3.24861E-04-8.77894E-08
 -1       250 2.60334E-09 1.75027E-03-8.68318E-05
 -1       251-6.94397E-07 1.23887E-03-1.98715E-06
 -1       252 1.46551E-12 1.37364E-03-1.76115E-07
 -1       253 6.94407E-07 1.23886E-03-1.98715E-06
 -1       254-2.61167E-09 1.75948E-03 9.27062E-05
 -1       255 4.86428E-12 1.41229E-03 1.18828E-07
 -1       256-4.12616E-10 7.78160E-04-2.11324E-04
 -1       257 7.52342E-07 9.02221E-04 3.68738E-07
 -1       258 7.73775E-14 7.76922E-04 1.99147E-07
 -1       259-7.52340E-07 9.02222E-04 3.68738E-07
 -1       260 4.16360E-10 7.75772E-04 2.10669E-04
 -1       261 3.31049E-13 3.48773E-04 3.29561E-07
 -3
    1PSTEP                         3           3           1          
  100CL  103 6.00000E-02          81                     1    3           1
 -4  DISP        4    1
 -5  D1          1    2    1    0
 -5  D2          1    2    2    0
 -5  D3          1    2    3    0
 -5  ALL         1    2    0    0    1ALL
 -1         5 0.00000E+00 0.00000E+00 0.00000E+00
 -1         6 0.00000E+00 0.00000E+00 0.00000E+00
 -1         7 0.00000E+00 0.00000E+00 0.00000E+00
 -1         8 0.00000E+00 0.00000E+00 0.00000E+00
 -1        21 0.00000E+00 0.00000E+00 0.00000E+00
 -1        22 0.00000E+00 0.00000E+00 0.00000E+00
 -1        23 0.00000E+00 0.00000E+00 0.00000E+00
 -1        24 0.00000E+00 0.00000E+00 0.00000E+00
 -1        25 0.00000E+00 0.00000E+00 0.00000E+00
 -1        26 0.00000E+00 0.00000E+00 0.00000E+00
 -1        27 0.00000E+00 0.00000E+00 0.00000E+00
 -1        28 0.00000E+00 0.00000E+00 0.00000E+00
 -1        29 0.00000E+00 0.00000E+00 0.00000E+00
 -1        30 0.00000E+00 0.00000E+00 0.00000E+00
 -1        31 0.00000E+00 0.00000E+00 0.00000E+00
 -1        32 0.00000E+00 0.00000E+00 0.00000E+00
 -1        44 4.14846E-05-1.38151E-03 1.93506E-04
 -1        45 1.76588E-05-1.04243E-03 3.44463E-04
 -1        46-2.33378E-05-7.49921E-04 3.71397E-04
 -1        47 4.35252E-05-3.07758E-04 2.40476E-04
 -1        48-4.35267E-05-3.07759E-04 2.40480E-04
 -1        49 2.33495E-05-7.49910E-04 3.71401E-04
 -1        50-1.76697E-05-1.04245E-03 3.44425E-04
 -1        51-4.14025E-05-1.38143E-03 1.93371E-04
 -1        74-4.11482E-05-1.40679E-03-2.02348E-04
 -1        75-1.16643E-05-1.05052E-03-3.45826E-04
 -1        76 1.91167E-05-7.45673E-04-3.71313E-04
 -1        77-4.49843E-05-3.04433E-04-2.40681E-04
 -1        89 4.10661E-05-1.40671E-03-2.02213E-04
 -1        90 1.16752E-05-1.05053E-03-3.45788E-04
 -1        91-1.91285E-05-7.45661E-04-3.71316E-04
 -1        92 4.49857E-05-3.04435E-04-2.40686E-04
 -1        98 0.00000E+00 0.00000E+00 0.00000E+00
 -1        99 0.00000E+00 0.00000E+00 0.00000E+00
 -1       100 0.00000E+00 0.00000E+00 0.00000E+00
 -1       101 0.00000E+00 0.00000E+00 0.00000E+00
 -1       102 0.00000E+00 0.00000E+00 0.00000E+00
 -1       124-1.03698E-05-1.25107E-03 2.10919E-04
 -1       125 1.13221E-08-1.37898E-03 1.79532E-04
 -1       126 1.04154E-05-1.25112E-03 2.10967E-04
 -1       127-1.79266E-09-1.06757E-03 3.22657E-04
 -1       128 1.13280E-05-7.77650E-04 3.83187E-04
 -1       129-4.98546E-10-7.35384E-04 3.96386E-04
 -1       130-1.13223E-05-7.77654E-04 3.83192E-04
 -1       131 3.88205E-10-3.08461E-04 2.31868E-04
 -1       153-7.54708E-05-1.66374E-03 1.04898E-04
 -1       154-2.71646E-06-1.47904E-03 1.93408E-07
 -1       155 7.23889E-05-1.67166E-03-1.09043E-04
 -1       156-2.02720E-06-1.08715E-03-1.14024E-06
 -1       157 1.21807E-05-6.78085E-04 1.55730E-04
 -1       158 1.67248E-06-7.28804E-04-1.04606E-07
 -1       159-1.24474E-05-6.77078E-04-1.55589E-04
 -1       160 3.98898E-07-2.59693E-04 8.74616E-08
 -1       182-1.32078E-05-1.24278E-03-2.11755E-04
 -1       183-1.13267E-08-1.39358E-03-1.77568E-04
 -1       184 1.31622E-05-1.24274E-03-2.11707E-04
 -1       185 1.78809E-09-1.07412E-03-3.22112E-04
 -1       186 9.98812E-06-7.80656E-04-3.85335E-04
 -1       187 4.96285E-10-7.31530E-04-3.98524E-04
 -1       188-9.99385E-06-7.80652E-04-3.85331E-04
 -1       189-3.88288E-10-3.06721E-04-2.32097E-04
 -1       211-7.24358E-05-1.67162E-03-1.08995E-04
 -1       212 2.71648E-06-1.47902E-03 1.93402E-07
 -1       213 7.55176E-05-1.66369E-03 1.04850E-04
 -1       214 2.02720E-06-1.08715E-03-1.14024E-06
 -1       215 1.24432E-05-6.77072E-04-1.55584E-04
 -1       216-1.67249E-06-7.28805E-04-1.04604E-07
 -1       217-1.21765E-05-6.78079E-04 1.55726E-04
 -1       218-3.98901E-07-2.59692E-04 8.74616E-08
 -1       250 1.04410E-08-1.42685E-03 8.27569E-05
 -1       251 2.06645E-07-1.08250E-03 2.57000E-06
 -1       252-6.62157E-14-1.12615E-03 1.18798E-06
 -1       253-2.06649E-07-1.08252E-03 2.57000E-06
 -1       254-1.04354E-08-1.43583E-03-8.85712E-05
 -1       255-3.48671E-12-1.15619E-03 3.53330E-07
 -1       256-1.62147E-09-6.41393E-04 1.75952E-04
 -1       257-5.48692E-07-7.42034E-04-5.68257E-07
 -1       258-1.49185E-13-6.41224E-04-4.97082E-07
 -1       259 5.48691E-07-7.42031E-04-5.68257E-07
 -1       260 1.61804E-09-6.38919E-04-1.75659E-04
 -1       261-4.17919E-13-2.86084E-04-4.75371E-07
 -3
    1PSTEP                         4           4           1          
  100CL  104 8.00000E-02          81                     1    4           1
 -4  DISP        4    1
 -5  D1          1    2    1    0
 -5  D2          1    2    2    0
 -5  D3          1    2    3    0
 -5  ALL         1    2    0    0    1ALL
 -1         5 0.00000E+00 0.00000E+00 0.00000E+00
 -1         6 0.00000E+00 0.00000E+00 0.00000E+00
 -1         7 0.00000E+00 0.00000E+00 0.00000E+00
 -1         8 0.00000E+00 0.00000E+00 0.00000E+00
 -1        21 0.00000E+00 0.00000E+00 0.00000E+00
 -1        22 0.00000E+00 0.00000E+00 0.00000E+00
 -1        23 0.00000E+00 0.00000E+00 0.00000E+00
 -1        24 0.00000E+00 0.00000E+00 0.00000E+00
 -1        25 0.00000E+00 0.00000E+00 0.00000E+00
 -1        26 0.00000E+00 0.00000E+00 0.00000E+00
 -1        27 0.00000E+00 0.00000E+00 0.00000E+00
 -1        28 0.00000E+00 0.00000E+00 0.00000E+00
 -1        29 0.00000E+00 0.00000E+00 0.00000E+00
 -1        30 0.00000E+00 0.00000E+00 0.00000E+00
 -1        31 0.00000E+00 0.00000E+00 0.00000E+00
 -1        32 0.00000E+00 0.00000E+00 0.00000E+00
 -1        44-4.87035E-05 9.92969E-04-1.41678E-04
 -1        45-8.59902E-06 7.53376E-04-2.45787E-04
 -1        46 1.87427E-05 5.57673E-04-2.59978E-04
 -1        47-3.13902E-05 2.30890E-04-1.72571E-04
 -1        48 3.13908E-05 2.30890E-04-1.72573E-04
 -1        49-1.87474E-05 5.57668E-04-2.59979E-04
 -1        50 8.60346E-06 7.53380E-04-2.45771E-04
 -1        51 4.86701E-05 9.92936E-04-1.41623E-04
 -1        74 4.52649E-05 1.00641E-03 1.40887E-04
 -1        75 5.25567E-06 7.59476E-04 2.45166E-04
 -1        76-1.68047E-05 5.54054E-04 2.59615E-04
 -1        77 3.23498E-05 2.28702E-04 1.72526E-04
 -1        89-4.52315E-05 1.00638E-03 1.40831E-04
 -1        90-5.26011E-06 7.59480E-04 2.45151E-04
 -1        91 1.68095E-05 5.54050E-04 2.59617E-04
 -1        92-3.23504E-05 2.28703E-04 1.72528E-04
 -1        98 0.00000E+00 0.00000E+00 0.00000E+00
 -1        99 0.00000E+00 0.00000E+00 0.00000E+00
 -1       100 0.00000E+00 0.00000E+00 0.00000E+00
 -1       101 0.00000E+00 0.00000E+00 0.00000E+00
 -1       102 0.00000E+00 0.00000E+00 0.00000E+00
 -1       124 1.61895E-05 9.08329E-04-1.38224E-04
 -1       125-4.65512E-09 1.00930E-03-1.42450E-04
 -1       126-1.62082E-05 9.08348E-04-1.38243E-04
 -1       127 7.36287E-10 7.70640E-04-2.28385E-04
 -1       128-8.78570E-06 5.77168E-04-2.75830E-04
 -1       129 2.02499E-10 5.46780E-04-2.81597E-04
 -1       130 8.78338E-06 5.77169E-04-2.75832E-04
 -1       131-1.56135E-10 2.30669E-04-1.66439E-04
 -1       153 4.98935E-05 1.19405E-03-6.58567E-05
 -1       154 2.41109E-06 1.05366E-03 1.54816E-07
 -1       155-4.94373E-05 1.19769E-03 6.61219E-05
 -1       156 1.52774E-06 7.96421E-04 5.71636E-07
 -1       157-8.64016E-06 5.02514E-04-1.10273E-04
 -1       158-1.16641E-06 5.36694E-04-1.42527E-07
 -1       159 8.50040E-06 5.01502E-04 1.09684E-04
 -1       160-4.13361E-07 1.96545E-04-1.30791E-07
 -1       182 1.71639E-05 9.00063E-04 1.36096E-04
 -1       183 4.66005E-09 1.01704E-03 1.39625E-04
 -1       184-1.71453E-05 9.00044E-04 1.36077E-04
 -1       185-7.27280E-10 7.75171E-04 2.26607E-04
 -1       186-8.47938E-06 5.78616E-04 2.76495E-04
 -1       187-2.03274E-10 5.43918E-04 2.82456E-04
 -1       188 8.48171E-06 5.78614E-04 2.76493E-04
 -1       189 1.56807E-10 2.29392E-04 1.66574E-04
 -1       211 4.94565E-05 1.19767E-03 6.61024E-05
 -1       212-2.41107E-06 1.05366E-03 1.54791E-07
 -1       213-4.99126E-05 1.19403E-03-6.58372E-05
 -1       214-1.52774E-06 7.96422E-04 5.71632E-07
 -1       215-8.49871E-06 5.01500E-04 1.09683E-04
 -1       216 1.16642E-06 5.36695E-04-1.42528E-07
 -1       217 8.63847E-06 5.02512E-04-1.10271E-04
 -1       218 4.13362E-07 1.96544E-04-1.30793E-07
 -1       250-4.27072E-09 1.03097E-03-5.60945E-05
 -1       251-4.68429E-07 7.63069E-04-1.65666E-06
 -1       252 3.99915E-12 7.99402E-04-7.71062E-07
 -1       253 4.68449E-07 7.63077E-04-1.65665E-06
 -1       254 4.26858E-09 1.03547E-03 5.91390E-05
 -1       255 4.83700E-12 8.45580E-04-2.87623E-07
 -1       256 6.59853E-10 4.75209E-04-1.26589E-04
 -1       257 3.88675E-07 5.45830E-04 1.01154E-07
 -1       258 5.53646E-13 4.71439E-04-1.88067E-08
 -1       259-3.88670E-07 5.45828E-04 1.01155E-07
 -1       260-6.57197E-10 4.73571E-04 1.25799E-04
 -1       261 5.28528E-14 2.15596E-04 1.88245E-07
 -3
    1PSTEP                         5           5           1          
  100CL  105 1.00000E-01          81                     1    5           1
 -4  DISP        4    1
 -5  D1          1    2    1    0
 -5  D2          1    2    2    0
 -5  D3          1    2    3    0
 -5  ALL         1    2    0    0    1ALL
 -1         5 0.00000E+00 0.00000E+00 0.00000E+00
 -1         6 0.00000E+00 0.00000E+00 0.00000E+00
 -1         7 0.00000E+00 0.00000E+00 0.00000E+00
 -1         8 0.00000E+00 0.00000E+00 0.00000E+00
 -1        21 0.00000E+00 0.00000E+00 0.00000E+00
 -1        22 0.00000E+00 0.00000E+00 0.00000E+00
 -1        23 0.00000E+00 0.00000E+00 0.00000E+00
 -1        24 0.00000E+00 0.00000E+00 0.00000E+00
 -1        25 0.00000E+00 0.00000E+00 0.00000E+00
 -1        26 0.00000E+00 0.00000E+00 0.00000E+00
 -1        27 0.00000E+00 0.00000E+00 0.00000E+00
 -1        28 0.00000E+00 0.00000E+00 0.00000E+00
 -1        29 0.00000E+00 0.00000E+00 0.00000E+00
 -1        30 0.00000E+00 0.00000E+00 0.00000E+00
 -1        31 0.00000E+00 0.00000E+00 0.00000E+00
 -1        32 0.00000E+00 0.00000E+00 0.00000E+00
 -1        44 2.74963E-05-7.77482E-04 1.12157E-04
 -1        45 5.03356E-06-5.81897E-04 1.88639E-04
 -1        46-1.19778E-05-4.25421E-04 2.03477E-04
 -1        47 2.39994E-05-1.75528E-04 1.34211E-04
 -1        48-2.40021E-05-1.75531E-04 1.34219E-04
 -1        49 1.19994E-05-4.25399E-04 2.03484E-04
 -1        50-5.05361E-06-5.81917E-04 1.88570E-04
 -1        51-2.73460E-05-7.77331E-04 1.11908E-04
 -1        74-2.39039E-05-7.85987E-04-1.08823E-04
 -1        75-2.22018E-06-5.88551E-04-1.88421E-04
 -1        76 1.06649E-05-4.21228E-04-2.03686E-04
 -1        77-2.51454E-05-1.73714E-04-1.34410E-04
 -1        89 2.37535E-05-7.85836E-04-1.08574E-04
 -1        90 2.24022E-06-5.88571E-04-1.88352E-04
 -1        91-1.06865E-05-4.21206E-04-2.03692E-04
 -1        92 2.51480E-05-1.73717E-04-1.34418E-04
 -1        98 0.00000E+00 0.00000E+00 0.00000E+00
 -1        99 0.00000E+00 0.00000E+00 0.00000E+00
 -1       100 0.00000E+00 0.00000E+00 0.00000E+00
 -1       101 0.00000E+00 0.00000E+00 0.00000E+00
 -1       102 0.00000E+00 0.00000E+00 0.00000E+00
 -1       124-5.37056E-06-7.01873E-04 1.13664E-04
 -1       125 2.06276E-08-7.75754E-04 9.76915E-05
 -1       126 5.45396E-06-7.01959E-04 1.13751E-04
 -1       127-3.27833E-09-5.90859E-04 1.76583E-04
 -1       128 5.31518E-06-4.42475E-04 2.12264E-04
 -1       129-9.13333E-10-4.19715E-04 2.19146E-04
 -1       130-5.30468E-06-4.42483E-04 2.12272E-04
 -1       131 7.14933E-10-1.75587E-04 1.27639E-04
 -1       153-3.93981E-05-9.33204E-04 5.33282E-05
 -1       154-3.31640E-06-8.26268E-04-1.87098E-06
 -1       155 3.74054E-05-9.35651E-04-5.58759E-05
 -1       156-8.10503E-07-6.09572E-04-5.78374E-07
 -1       157 6.79530E-06-3.85140E-04 8.60164E-05
 -1       158 5.79348E-07-4.13670E-04 6.03397E-08
 -1       159-6.76224E-06-3.83524E-04-8.53551E-05
 -1       160 3.28340E-07-1.48658E-04-9.97591E-08
 -1       182-5.80318E-06-6.93919E-04-1.11611E-04
 -1       183-2.06438E-08-7.85907E-04-9.77286E-05
 -1       184 5.71973E-06-6.93833E-04-1.11524E-04
 -1       185 3.28206E-09-5.94557E-04-1.75771E-04
 -1       186 5.16775E-06-4.43860E-04-2.13454E-04
 -1       187 8.99515E-10-4.18013E-04-2.20477E-04
 -1       188-5.17829E-06-4.43852E-04-2.13446E-04
 -1       189-7.13760E-10-1.74198E-04-1.27934E-04
 -1       211-3.74911E-05-9.35567E-04-5.57889E-05
 -1       212 3.31649E-06-8.26227E-04-1.87108E-06
 -1       213 3.94839E-05-9.33120E-04 5.32411E-05
 -1       214 8.10490E-07-6.09579E-04-5.78381E-07
 -1       215 6.75452E-06-3.83513E-04-8.53467E-05
 -1       216-5.79338E-07-4.13672E-04 6.03440E-08
 -1       217-6.78759E-06-3.85130E-04 8.60080E-05
 -1       218-3.28346E-07-1.48656E-04-9.97642E-08
 -1       250 1.90750E-08-7.88241E-04 3.44048E-05
 -1       251 6.37352E-07-5.89394E-04 1.32526E-06
 -1       252 3.06455E-12-6.01020E-04 1.08528E-06
 -1       253-6.37321E-07-5.89432E-04 1.32528E-06
 -1       254-1.90858E-08-7.94170E-04-3.76920E-05
 -1       255-5.77301E-13-6.52433E-04-9.04664E-09
 -1       256-2.97170E-09-3.61385E-04 9.93235E-05
 -1       257-3.88017E-08-4.17136E-04-3.42045E-07
 -1       258-9.18735E-13-3.56749E-04-1.46115E-07
 -1       259 3.88094E-08-4.17130E-04-3.42041E-07
 -1       260 2.96583E-09-3.60269E-04-9.91129E-05
 -1       261-1.87631E-12-1.64885E-04-9.39519E-08
 -3
    1PSTEP                         6           6           1          
  100CL  106 1.20000E-01          81                     1    6           1
 -4  DISP        4    1
 -5  D1          1    2    1    0
 -5  D2          1    2    2    0
 -5  D3          1    2    3    0
 -5  ALL         1    2    0    0    1ALL
 -1         5 0.00000E+00 0.00000E+00 0.00000E+00
 -1         6 0.00000E+00 0.00000E+00 0.00000E+00
 -1         7 0.00000E+00 0.00000E+00 0.00000E+00
 -1         8 0.00000E+00 0.00000E+00 0.00000E+00
 -1        21 0.00000E+00 0.00000E+00 0.00000E+00
 -1        22 0.00000E+00 0.00000E+00 0.00000E+00
 -1        23 0.00000E+00 0.00000E+00 0.00000E+00
 -1        24 0.00000E+00 0.00000E+00 0.00000E+00
 -1        25 0.00000E+00 0.00000E+00 0.00000E+00
 -1        26 0.00000E+00 0.00000E+00 0.00000E+00
 -1        27 0.00000E+00 0.00000E+00 0.00000E+00
 -1        28 0.00000E+00 0.00000E+00 0.00000E+00
 -1        29 0.00000E+00 0.00000E+00 0.00000E+00
 -1        30 0.00000E+00 0.00000E+00 0.00000E+00
 -1        31 0.00000E+00 0.00000E+00 0.00000E+00
 -1        32 0.00000E+00 0.00000E+00 0.00000E+00
 -1        44-3.67783E-05 5.38624E-04-7.04950E-05
 -1        45-7.37858E-06 4.14942E-04-1.35533E-04
 -1        46 1.08456E-05 3.08713E-04-1.46250E-04
 -1        47-1.67353E-05 1.27382E-04-9.56150E-05