    1C
    1UUSER                                                              
    1UDATE              12.july.2018                                    
    1UTIME              16:06:40                                        
    1UHOST                                                              
    1UPGM               CalculiX                                        
    1UVERSION           Version 2.13                             
    1UCOMPILETIME       jue jun 14 00:40:39 CEST 2018                    
    1UDIR                                                               
    1UDBN                                                               
    1UMAT    1EL                                                        
    2C                            81                                     1
 -1         5 0.00000E+00 0.00000E+00 8.00000E+00
 -1         6 1.00000E+00 0.00000E+00 8.00000E+00
 -1         7 1.00000E+00 1.00000E+00 8.00000E+00
 -1         8 0.00000E+00 1.00000E+00 8.00000E+00
 -1        21 2.50000E-01 0.00000E+00 8.00000E+00
 -1        22 5.00000E-01 0.00000E+00 8.00000E+00
 -1        23 7.50000E-01 0.00000E+00 8.00000E+00
 -1        24 1.00000E+00 2.50000E-01 8.00000E+00
 -1        25 1.00000E+00 5.00000E-01 8.00000E+00
 -1        26 1.00000E+00 7.50000E-01 8.00000E+00
 -1        27 7.50000E-01 1.00000E+00 8.00000E+00
 -1        28 5.00000E-01 1.00000E+00 8.00000E+00
 -1        29 2.50000E-01 1.00000E+00 8.00000E+00
 -1        30 0.00000E+00 7.50000E-01 8.00000E+00
 -1        31 0.00000E+00 5.00000E-01 8.00000E+00
 -1        32 0.00000E+00 2.50000E-01 8.00000E+00
 -1        44 1.00000E+00 0.00000E+00 6.00000E+00
 -1        45 1.00000E+00 0.00000E+00 6.50000E+00
 -1        46 1.00000E+00 0.00000E+00 7.00000E+00
 -1        47 1.00000E+00 0.00000E+00 7.50000E+00
 -1        48 0.00000E+00 0.00000E+00 7.50000E+00
 -1        49 0.00000E+00 0.00000E+00 7.00000E+00
 -1        50 0.00000E+00 0.00000E+00 6.50000E+00
 -1        51 0.00000E+00 0.00000E+00 6.00000E+00
 -1        74 1.00000E+00 1.00000E+00 6.00000E+00
 -1        75 1.00000E+00 1.00000E+00 6.50000E+00
 -1        76 1.00000E+00 1.00000E+00 7.00000E+00
 -1        77 1.00000E+00 1.00000E+00 7.50000E+00
 -1        89 0.00000E+00 1.00000E+00 6.00000E+00
 -1        90 0.00000E+00 1.00000E+00 6.50000E+00
 -1        91 0.00000E+00 1.00000E+00 7.00000E+00
 -1        92 0.00000E+00 1.00000E+00 7.50000E+00
 -1        98 5.00000E-01 2.50000E-01 8.00000E+00
 -1        99 2.50000E-01 5.00000E-01 8.00000E+00
 -1       100 5.00000E-01 5.00000E-01 8.00000E+00
 -1       101 7.50000E-01 5.00000E-01 8.00000E+00
 -1       102 5.00000E-01 7.50000E-01 8.00000E+00
 -1       124 2.50000E-01 0.00000E+00 6.00000E+00
 -1       125 5.00000E-01 0.00000E+00 6.00000E+00
 -1       126 7.50000E-01 0.00000E+00 6.00000E+00
 -1       127 5.00000E-01 0.00000E+00 6.50000E+00
 -1       128 2.50000E-01 0.00000E+00 7.00000E+00
 -1       129 5.00000E-01 0.00000E+00 7.00000E+00
 -1       130 7.50000E-01 0.00000E+00 7.00000E+00
 -1       131 5.00000E-01 0.00000E+00 7.50000E+00
 -1       153 1.00000E+00 2.50000E-01 6.00000E+00
 -1       154 1.00000E+00 5.00000E-01 6.00000E+00
 -1       155 1.00000E+00 7.50000E-01 6.00000E+00
 -1       156 1.00000E+00 5.00000E-01 6.50000E+00
 -1       157 1.00000E+00 2.50000E-01 7.00000E+00
 -1       158 1.00000E+00 5.00000E-01 7.00000E+00
 -1       159 1.00000E+00 7.50000E-01 7.00000E+00
 -1       160 1.00000E+00 5.00000E-01 7.50000E+00
 -1       182 7.50000E-01 1.00000E+00 6.00000E+00
 -1       183 5.00000E-01 1.00000E+00 6.00000E+00
 -1       184 2.50000E-01 1.00000E+00 6.00000E+00
 -1       185 5.00000E-01 1.00000E+00 6.50000E+00
 -1       186 7.50000E-01 1.00000E+00 7.00000E+00
 -1       187 5.00000E-01 1.00000E+00 7.00000E+00
 -1       188 2.50000E-01 1.00000E+00 7.00000E+00
 -1       189 5.00000E-01 1.00000E+00 7.50000E+00
 -1       211 0.00000E+00 7.50000E-01 6.00000E+00
 -1       212 0.00000E+00 5.00000E-01 6.00000E+00
 -1       213 0.00000E+00 2.50000E-01 6.00000E+00
 -1       214 0.00000E+00 5.00000E-01 6.50000E+00
 -1       215 0.00000E+00 7.50000E-01 7.00000E+00
 -1       216 0.00000E+00 5.00000E-01 7.00000E+00
 -1       217 0.00000E+00 2.50000E-01 7.00000E+00
 -1       218 0.00000E+00 5.00000E-01 7.50000E+00
 -1       250 5.00000E-01 2.50000E-01 6.00000E+00
 -1       251 2.50000E-01 5.00000E-01 6.00000E+00
 -1       252 5.00000E-01 5.00000E-01 6.00000E+00
 -1       253 7.50000E-01 5.00000E-01 6.00000E+00
 -1       254 5.00000E-01 7.50000E-01 6.00000E+00
 -1       255 5.00000E-01 5.00000E-01 6.50000E+00
 -1       256 5.00000E-01 2.50000E-01 7.00000E+00
 -1       257 2.50000E-01 5.00000E-01 7.00000E+00
 -1       258 5.00000E-01 5.00000E-01 7.00000E+00
 -1       259 7.50000E-01 5.00000E-01 7.00000E+00
 -1       260 5.00000E-01 7.50000E-01 7.00000E+00
 -1       261 5.00000E-01 5.00000E-01 7.50000E+00
 -3
    3C                             8                                     1
 -1        25    4    0    1
 -2        51       125       252       212        49       129       258       216       124       250
 -2       251       213        50       127       255       214       128       256       257       217
 -1        26    4    0    1
 -2       125        44       154       252       129        46       158       258       126       153
 -2       253       250       127        45       156       255       130       157       259       256
 -1        27    4    0    1
 -2       212       252       183        89       216       258       187        91       251       254
 -2       184       211       214       255       185        90       257       260       188       215
 -1        28    4    0    1
 -2       252       154        74       183       258       158        76       187       253       155
 -2       182       254       255       156        75       185       259       159       186       260
 -1        29    4    0    1
 -2        49       129       258       216         5        22       100        31       128       256
 -2       257       217        48       131       261       218        21        98        99        32
 -1        30    4    0    1
 -2       129        46       158       258        22         6        25       100       130       157
 -2       259       256       131        47       160       261        23        24       101        98
 -1        31    4    0    1
 -2       216       258       187        91        31       100        28         8       257       260
 -2       188       215       218       261       189        92        99       102        29        30
 -1        32    4    0    1
 -2       258       158        76       187       100        25         7        28       259       159
 -2       186       260       261       160        77       189       101        26        27       102
 -3
    1PSTEP                         1           1           1          
  100CL  101 2.00000E-02          81                     1    1           1
 -4  DISP        4    1
 -5  D1          1    2    1    0
 -5  D2          1    2    2    0
 -5  D3          1    2    3    0
 -5  ALL         1    2    0    0    1ALL
 -1         5 0.00000E+00 0.00000E+00 0.00000E+00
 -1         6 0.00000E+00 0.00000E+00 0.00000E+00
 -1         7 0.00000E+00 0.00000E+00 0.00000E+00
 -1         8 0.00000E+00 0.00000E+00 0.00000E+00
 -1        21 0.00000E+00 0.00000E+00 0.00000E+00
 -1        22 0.00000E+00 0.00000E+00 0.00000E+00
 -1        23 0.00000E+00 0.00000E+00 0.00000E+00
 -1        24 0.00000E+00 0.00000E+00 0.00000E+00
 -1        25 0.00000E+00 0.00000E+00 0.00000E+00
 -1        26 0.00000E+00 0.00000E+00 0.00000E+00
 -1        27 0.00000E+00 0.00000E+00 0.00000E+00
 -1        28 0.00000E+00 0.00000E+00 0.00000E+00
 -1        29 0.00000E+00 0.00000E+00 0.00000E+00
 -1        30 0.00000E+00 0.00000E+00 0.00000E+00
 -1        31 0.00000E+00 0.00000E+00 0.00000E+00
 -1        32 0.00000E+00 0.00000E+00 0.00000E+00
 -1        44 5.96525E-05-1.99607E-03 2.77131E-04
 -1        45 7.94840E-06-1.52040E-03 4.88137E-04
 -1        46-3.66366E-05-1.10672E-03 5.13010E-04
 -1        47 6.47022E-05-4.61133E-04 3.44924E-04
 -1        48-6.47022E-05-4.61133E-04 3.44925E-04
 -1        49 3.66370E-05-1.10672E-03 5.13010E-04
 -1        50-7.94872E-06-1.52040E-03 4.88136E-04
 -1        51-5.96498E-05-1.99607E-03 2.77127E-04
 -1        74-5.14400E-05-2.02746E-03-2.80722E-04
 -1        75-2.37379E-06-1.53204E-03-4.90279E-04
 -1        76 3.21811E-05-1.10414E-03-5.14349E-04
 -1        77-6.78836E-05-4.55024E-04-3.45738E-04
 -1        89 5.14373E-05-2.02746E-03-2.80717E-04
 -1        90 2.37412E-06-1.53204E-03-4.90277E-04
 -1        91-3.21815E-05-1.10414E-03-5.14349E-04
 -1        92 6.78837E-05-4.55024E-04-3.45738E-04
 -1        98 0.00000E+00 0.00000E+00 0.00000E+00
 -1        99 0.00000E+00 0.00000E+00 0.00000E+00
 -1       100 0.00000E+00 0.00000E+00 0.00000E+00
 -1       101 0.00000E+00 0.00000E+00 0.00000E+00
 -1       102 0.00000E+00 0.00000E+00 0.00000E+00
 -1       124-6.12350E-06-1.80918E-03 2.63124E-04
 -1       125 4.01769E-10-2.01124E-03 2.79050E-04
 -1       126 6.12501E-06-1.80918E-03 2.63126E-04
 -1       127-6.40635E-11-1.53470E-03 4.55173E-04
 -1       128 1.54889E-05-1.15381E-03 5.50389E-04
 -1       129-2.98384E-12-1.09883E-03 5.62906E-04
 -1       130-1.54887E-05-1.15381E-03 5.50389E-04
 -1       131 1.59681E-11-4.60093E-04 3.29517E-04
 -1       153-1.01396E-04-2.40657E-03 1.26787E-04
 -1       154-2.91434E-06-2.14648E-03-9.29170E-07
 -1       155 1.01552E-04-2.41690E-03-1.31093E-04
 -1       156-1.98927E-06-1.58883E-03-2.83042E-06
 -1       157 1.47332E-05-1.00781E-03 2.16246E-04
 -1       158 3.05624E-06-1.08458E-03-3.95642E-07
 -1       159-1.14749E-05-1.00856E-03-2.16621E-04
 -1       160 1.31027E-06-3.91075E-04 7.68778E-07
 -1       182-6.69753E-06-1.79635E-03-2.64697E-04
 -1       183-4.04921E-10-2.03774E-03-2.80600E-04
 -1       184 6.69601E-06-1.79635E-03-2.64695E-04
 -1       185 5.85866E-11-1.54916E-03-4.55308E-04
 -1       186 1.45943E-05-1.16804E-03-5.54270E-04
 -1       187 1.66302E-12-1.11029E-03-5.67543E-04
 -1       188-1.45945E-05-1.16804E-03-5.54270E-04
 -1       189-1.58516E-11-4.62014E-04-3.31257E-04
 -1       211-1.01554E-04-2.41690E-03-1.31091E-04
 -1       212 2.91435E-06-2.14648E-03-9.29172E-07
 -1       213 1.01397E-04-2.40657E-03 1.26785E-04
 -1       214 1.98927E-06-1.58883E-03-2.83042E-06
 -1       215 1.14748E-05-1.00856E-03-2.16621E-04
 -1       216-3.05625E-06-1.08458E-03-3.95641E-07
 -1       217-1.47331E-05-1.00781E-03 2.16246E-04
 -1       218-1.31028E-06-3.91075E-04 7.68777E-07
 -1       250 3.66168E-10-2.03288E-03 1.10476E-04
 -1       251-4.16369E-07-1.52480E-03 3.35280E-06
 -1       252 2.21707E-12-1.54150E-03 1.23144E-06
 -1       253 4.16364E-07-1.52480E-03 3.35281E-06
 -1       254-3.53541E-10-2.04899E-03-1.23200E-04
 -1       255-4.40557E-12-1.69461E-03-1.11459E-06
 -1       256-4.79547E-11-9.47957E-04 2.52060E-04
 -1       257-1.54809E-06-1.09200E-03-1.28932E-06
 -1       258 7.10700E-13-9.35974E-04-1.11803E-06
 -1       259 1.54809E-06-1.09200E-03-1.28932E-06
 -1       260 4.47508E-11-9.52458E-04-2.52308E-04
 -1       261-4.24280E-13-4.35298E-04 8.27749E-08
 -3
    1PSTEP                         2           2           1          
  100CL  102 4.00000E-02          81                     1    2           1
 -4  DISP        4    1
 -5  D1          1    2    1    0
 -5  D2          1    2    2    0
 -5  D3          1    2    3    0
 -5  ALL         1    2    0    0    1ALL
 -1         5 0.00000E+00 0.00000E+00 0.00000E+00
 -1         6 0.00000E+00 0.00000E+00 0.00000E+00
 -1         7 0.00000E+00 0.00000E+00 0.00000E+00
 -1         8 0.00000E+00 0.00000E+00 0.00000E+00
 -1        21 0.00000E+00 0.00000E+00 0.00000E+00
 -1        22 0.00000E+00 0.00000E+00 0.00000E+00
 -1        23 0.00000E+00 0.00000E+00 0.00000E+00
 -1        24 0.00000E+00 0.00000E+00 0.00000E+00
 -1        25 0.00000E+00 0.00000E+00 0.00000E+00
 -1        26 0.00000E+00 0.00000E+00 0.00000E+00
 -1        27 0.00000E+00 0.00000E+00 0.00000E+00
 -1        28 0.00000E+00 0.00000E+00 0.00000E+00
 -1        29 0.00000E+00 0.00000E+00 0.00000E+00
 -1        30 0.00000E+00 0.00000E+00 0.00000E+00
 -1        31 0.00000E+00 0.00000E+00 0.00000E+00
 -1        32 0.00000E+00 0.00000E+00 0.00000E+00
 -1        44-1.48373E-04 1.63965E-03-2.39626E-04
 -1        45-2.75123E-05 1.22549E-03-4.19133E-04
 -1        46 3.13176E-05 9.40083E-04-4.43834E-04
 -1        47-4.69485E-05 3.79986E-04-2.84027E-04
 -1        48 4.69481E-05 3.79985E-04-2.84026E-04
 -1        49-3.13146E-05 9.40086E-04-4.43833E-04
 -1        50 2.75095E-05 1.22549E-03-4.19143E-04
 -1        51 1.48394E-04 1.63967E-03-2.39660E-04
 -1        74 1.40877E-04 1.66457E-03 2.37900E-04
 -1        75 2.15954E-05 1.23693E-03 4.18361E-04
 -1        76-2.78342E-05 9.33529E-04 4.43705E-04
 -1        77 4.88359E-05 3.76030E-04 2.84248E-04
 -1        89-1.40897E-04 1.66459E-03 2.37934E-04
 -1        90-2.15926E-05 1.23693E-03 4.18370E-04
 -1        91 2.78313E-05 9.33532E-04 4.43704E-04
 -1        92-4.88356E-05 3.76029E-04 2.84246E-04
 -1        98 0.00000E+00 0.00000E+00 0.00000E+00
 -1        99 0.00000E+00 0.00000E+00 0.00000E+00
 -1       100 0.00000E+00 0.00000E+00 0.00000E+00
 -1       101 0.00000E+00 0.00000E+00 0.00000E+00
 -1       102 0.00000E+00 0.00000E+00 0.00000E+00
 -1       124 7.47221E-05 1.50903E-03-2.33640E-04
 -1       125 2.81748E-09 1.68111E-03-2.25826E-04
 -1       126-7.47106E-05 1.50902E-03-2.33628E-04
 -1       127-4.44866E-10 1.28688E-03-3.77858E-04
 -1       128-1.84862E-05 9.60750E-04-4.64042E-04
 -1       129-1.39268E-10 8.98053E-04-4.72470E-04
 -1       130 1.84876E-05 9.60749E-04-4.64041E-04
 -1       131 9.42074E-11 3.77288E-04-2.77205E-04
 -1       153 8.18177E-05 1.99196E-03-1.13090E-04
 -1       154 4.29662E-06 1.70596E-03 1.12433E-07
 -1       155-8.20629E-05 1.99852E-03 1.13925E-04
 -1       156 3.05427E-06 1.32608E-03 1.23705E-06
 -1       157-2.16395E-05 8.23704E-04-1.88225E-04
 -1       158-2.23632E-06 8.73950E-04 1.55828E-07
 -1       159 2.12670E-05 8.21993E-04 1.87667E-04
 -1       160-8.31151E-07 3.24861E-04-8.77890E-08
 -1       182 7.60588E-05 1.49478E-03 2.31144E-04
 -1       183-2.81433E-09 1.69800E-03 2.23540E-04
 -1       184-7.60702E-05 1.49480E-03 2.31156E-04
 -1       185 4.52034E-10 1.29517E-03 3.75959E-04
 -1       186-1.80015E-05 9.64030E-04 4.65480E-04
 -1       187 1.40381E-10 8.93856E-04 4.73979E-04
 -1       188 1.80001E-05 9.64031E-04 4.65481E-04
 -1       189-9.39465E-11 3.75271E-04 2.77554E-04
 -1       211 8.20511E-05 1.99853E-03 1.13937E-04
 -1       212-4.29663E-06 1.70597E-03 1.12433E-07
 -1       213-8.18059E-05 1.99197E-03-1.13102E-04
 -1       214-3.05428E-06 1.32608E-03 1.23705E-06
 -1       215-2.12681E-05 8.21994E-04 1.87668E-04
 -1       216 2.23633E-06 8.73950E-04 1.55826E-07
 -1       217 2.16405E-05 8.23705E-04-1.88227E-04
 -1       218 8.31155E-07 3.24861E-04-8.77894E-08
 -1       250 2.60334E-09 1.75027E-03-8.68318E-05
 -1       251-6.94397E-07 1.23887E-03-1.98715E-06
 -1       252 1.46551E-12 1.37364E-03-1.76115E-07
 -1       253 6.94407E-07 1.23886E-03-1.98715E-06
 -1       254-2.61167E-09 1.75948E-03 9.27062E-05
 -1       255 4.86428E-12 1.41229E-03 1.18828E-07
 -1       256-4.12616E-10 7.78160E-04-2.11324E-04
 -1       257 7.52342E-07 9.02221E-04 3.68738E-07
 -1       258 7.73775E-14 7.76922E-04 1.99147E-07
 -1       259-7.52340E-07 9.02222E-04 3.68738E-07
 -1       260 4.16360E-10 7.75772E-04 2.10669E-04
 -1       261 3.31049E-13 3.48773E-04 3.29561E-07
 -3
    1PSTEP                         3           3           1          
  100CL  103 6.00000E-02          81                     1    3           1
 -4  DISP        4    1
 -5  D1          1    2    1    0
 -5  D2          1    2    2    0
 -5  D3          1    2    3    0
 -5  ALL         1    2    0    0    1ALL
 -1         5 0.00000E+00 0.00000E+00 0.00000E+00
 -1         6 0.00000E+00 0.00000E+00 0.00000E+00
 -1         7 0.00000E+00 0.00000E+00 0.00000E+00
 -1         8 0.00000E+00 0.00000E+00 0.00000E+00
 -1        21 0.00000E+00 0.00000E+00 0.00000E+00
 -1        22 0.00000E+00 0.00000E+00 0.00000E+00
 -1        23 0.00000E+00 0.00000E+00 0.00000E+00
 -1        24 0.00000E+00 0.00000E+00 0.00000E+00
 -1        25 0.00000E+00 0.00000E+00 0.00000E+00
 -1        26 0.00000E+00 0.00000E+00 0.00000E+00
 -1        27 0.00000E+00 0.00000E+00 0.00000E+00
 -1        28 0.00000E+00 0.00000E+00 0.00000E+00
 -1        29 0.00000E+00 0.00000E+00 0.00000E+00
 -1        30 0.00000E+00 0.00000E+00 0.00000E+00
 -1        31 0.00000E+00 0.00000E+00 0.00000E+00
 -1        32 0.00000E+00 0.00000E+00 0.00000E+00
 -1        44 9.34114E-05-1.30911E-03 1.91167E-04
 -1        45 1.82405E-05-9.77597E-04 3.31830E-04
 -1        46-2.49126E-05-7.39881E-04 3.48193E-04
 -1        47 3.88254E-05-3.00655E-04 2.25249E-04
 -1        48-3.88364E-05-3.00666E-04 2.25282E-04
 -1        49 2.50027E-05-7.39791E-04 3.48222E-04
 -1        50-1.83242E-05-9.77681E-04 3.31544E-04
 -1        51-9.27837E-05-1.30848E-03 1.90129E-04
 -1        74-8.91556E-05-1.32919E-03-1.91187E-04
 -1        75-1.34120E-05-9.86085E-04-3.31155E-04
 -1        76 2.20170E-05-7.34796E-04-3.47658E-04
 -1        77-4.01914E-05-2.97588E-04-2.25225E-04
 -1        89 8.85279E-05-1.32856E-03-1.90149E-04
 -1        90 1.34958E-05-9.86169E-04-3.30869E-04
 -1        91-2.21072E-05-7.34706E-04-3.47686E-04
 -1        92 4.02024E-05-2.97599E-04-2.25258E-04
 -1        98 0.00000E+00 0.00000E+00 0.00000E+00
 -1        99 0.00000E+00 0.00000E+00 0.00000E+00
 -1       100 0.00000E+00 0.00000E+00 0.00000E+00
 -1       101 0.00000E+00 0.00000E+00 0.00000E+00
 -1       102 0.00000E+00 0.00000E+00 0.00000E+00
 -1       124-4.23255E-05-1.19650E-03 1.84706E-04
 -1       125 8.63648E-08-1.32937E-03 1.86228E-04
 -1       126 4.26740E-05-1.19686E-03 1.85070E-04
 -1       127-1.36623E-08-1.01780E-03 3.02349E-04
 -1       128 1.35053E-05-7.59550E-04 3.67012E-04
 -1       129-3.88018E-09-7.12531E-04 3.73889E-04
 -1       130-1.34615E-05-7.59582E-04 3.67047E-04
 -1       131 2.95481E-09-2.99363E-04 2.19170E-04
 -1       153-6.71480E-05-1.58257E-03 8.78563E-05
 -1       154-3.34035E-06-1.36872E-03 9.38729E-08
 -1       155 6.64279E-05-1.58803E-03-8.85447E-05
 -1       156-2.21701E-06-1.04993E-03-6.97263E-07
 -1       157 1.48756E-05-6.53854E-04 1.48143E-04
 -1       158 1.64949E-06-6.95242E-04 8.21715E-08
 -1       159-1.48020E-05-6.52469E-04-1.47409E-04
 -1       160 6.14809E-07-2.56518E-04 1.48357E-07
 -1       182-4.43340E-05-1.18672E-03-1.83567E-04
 -1       183-8.63686E-08-1.34310E-03-1.84696E-04
 -1       184 4.39855E-05-1.18637E-03-1.83203E-04
 -1       185 1.36578E-08-1.02371E-03-3.00464E-04
 -1       186 1.29521E-05-7.61899E-04-3.67917E-04
 -1       187 3.87839E-09-7.08833E-04-3.74855E-04
 -1       188-1.29958E-05-7.61867E-04-3.67882E-04
 -1       189-2.95453E-09-2.97564E-04-2.19231E-04
 -1       211-6.67862E-05-1.58768E-03-8.81804E-05
 -1       212 3.34037E-06-1.36854E-03 9.38589E-08
 -1       213 6.75063E-05-1.58223E-03 8.74920E-05
 -1       214 2.21702E-06-1.04995E-03-6.97263E-07
 -1       215 1.47700E-05-6.52425E-04-1.47374E-04
 -1       216-1.64950E-06-6.95250E-04 8.21727E-08
 -1       217-1.48435E-05-6.53810E-04 1.48108E-04
 -1       218-6.14812E-07-2.56512E-04 1.48355E-07
 -1       250 7.96848E-08-1.37552E-03 7.45960E-05
 -1       251 5.33677E-07-9.89420E-04 2.28631E-06
 -1       252 9.92831E-13-1.07238E-03 1.11848E-06
 -1       253-5.33678E-07-9.89579E-04 2.28632E-06
 -1       254-7.96787E-08-1.38305E-03-7.83790E-05
 -1       255-3.71961E-12-1.11609E-03 2.98981E-07
 -1       256-1.24195E-08-6.17218E-04 1.67304E-04
 -1       257-5.29368E-07-7.14154E-04-1.50198E-07
 -1       258 7.24772E-13-6.15082E-04 1.45242E-08
 -1       259 5.29368E-07-7.14129E-04-1.50198E-07
 -1       260 1.24175E-08-6.15115E-04-1.66504E-04
 -1       261-5.14112E-13-2.77819E-04-1.96700E-07
 -3
    1PSTEP                         4           4           1          
  100CL  104 8.00000E-02          81                     1    4           1
 -4  DISP        4    1
 -5  D1          1    2    1    0
 -5  D2          1    2    2    0
 -5  D3          1    2    3    0
 -5  ALL         1    2    0    0    1ALL
 -1         5 0.00000E+00 0.00000E+00 0.00000E+00
 -1         6 0.00000E+00 0.00000E+00 0.00000E+00
 -1         7 0.00000E+00 0.00000E+00 0.00000E+00
 -1         8 0.00000E+00 0.00000E+00 0.00000E+00
 -1        21 0.00000E+00 0.00000E+00 0.00000E+00
 -1        22 0.00000E+00 0.00000E+00 0.00000E+00
 -1        23 0.00000E+00 0.00000E+00 0.00000E+00
 -1        24 0.00000E+00 0.00000E+00 0.00000E+00
 -1        25 0.00000E+00 0.00000E+00 0.00000E+00
 -1        26 0.00000E+00 0.00000E+00 0.00000E+00
 -1        27 0.00000E+00 0.00000E+00 0.00000E+00
 -1        28 0.00000E+00 0.00000E+00 0.00000E+00
 -1        29 0.00000E+00 0.00000E+00 0.00000E+00
 -1        30 0.00000E+00 0.00000E+00 0.00000E+00
 -1        31 0.00000E+00 0.00000E+00 0.00000E+00
 -1        32 0.00000E+00 0.00000E+00 0.00000E+00
 -1        44-7.85854E-05 9.95139E-04-1.42950E-04
 -1        45-1.54226E-05 7.48385E-04-2.53996E-04
 -1        46 2.06305E-05 5.70788E-04-2.65264E-04
 -1        47-2.97628E-05 2.32364E-04-1.72059E-04
 -1        48 2.97511E-05 2.32352E-04-1.72024E-04
 -1        49-2.05347E-05 5.70884E-04-2.65233E-04
 -1        50 1.53336E-05 7.48295E-04-2.54301E-04
 -1        51 7.92526E-05 9.95806E-04-1.44053E-04
 -1        74 7.59647E-05 1.01126E-03 1.44467E-04
 -1        75 1.20630E-05 7.53754E-04 2.53512E-04
 -1        76-1.84265E-05 5.67553E-04 2.64671E-04
 -1        77 3.06116E-05 2.30189E-04 1.71978E-04
 -1        89-7.66319E-05 1.01193E-03 1.45570E-04
 -1        90-1.19739E-05 7.53665E-04 2.53817E-04
 -1        91 1.83307E-05 5.67649E-04 2.64641E-04
 -1        92-3.05999E-05 2.30178E-04 1.71942E-04
 -1        98 0.00000E+00 0.00000E+00 0.00000E+00
 -1        99 0.00000E+00 0.00000E+00 0.00000E+00
 -1       100 0.00000E+00 0.00000E+00 0.00000E+00
 -1       101 0.00000E+00 0.00000E+00 0.00000E+00
 -1       102 0.00000E+00 0.00000E+00 0.00000E+00
 -1       124 3.85716E-05 9.15679E-04-1.37350E-04
 -1       125 9.17243E-08 1.01674E-03-1.47642E-04
 -1       126-3.82012E-05 9.15298E-04-1.36962E-04
 -1       127-1.45160E-08 7.83546E-04-2.30312E-04
 -1       128-1.13716E-05 5.83599E-04-2.81124E-04
 -1       129-4.13976E-09 5.46580E-04-2.85054E-04
 -1       130 1.14181E-05 5.83565E-04-2.81087E-04
 -1       131 3.13941E-09 2.31482E-04-1.68868E-04
 -1       153 5.07985E-05 1.20281E-03-6.47436E-05
 -1       154 1.87364E-06 1.03781E-03-8.79791E-07
 -1       155-5.11479E-05 1.20707E-03 6.42714E-05
 -1       156 1.83839E-06 8.07768E-04 4.51558E-07
 -1       157-1.12908E-05 5.03328E-04-1.13073E-04
 -1       158-1.34941E-06 5.33210E-04-2.16023E-08
 -1       159 1.12737E-05 5.02649E-04 1.12714E-04
 -1       160-4.81443E-07 1.98985E-04-1.82413E-07
 -1       182 3.97608E-05 9.09578E-04 1.37223E-04
 -1       183-9.17370E-08 1.02721E-03 1.47351E-04
 -1       184-4.01313E-05 9.09959E-04 1.37610E-04
 -1       185 1.45197E-08 7.87451E-04 2.28972E-04
 -1       186-1.10281E-05 5.85319E-04 2.81382E-04
 -1       187 4.13170E-09 5.43879E-04 2.85395E-04
 -1       188 1.09816E-05 5.85353E-04 2.81419E-04
 -1       189-3.13883E-09 2.30298E-04 1.68820E-04
 -1       211 5.07671E-05 1.20744E-03 6.46585E-05
 -1       212-1.87360E-06 1.03799E-03-8.79843E-07
 -1       213-5.04177E-05 1.20318E-03-6.51307E-05
 -1       214-1.83840E-06 8.07739E-04 4.51555E-07
 -1       215-1.13078E-05 5.02695E-04 1.12751E-04
 -1       216 1.34943E-06 5.33201E-04-2.15990E-08
 -1       217 1.13249E-05 5.03375E-04-1.13110E-04
 -1       218 4.81442E-07 1.98992E-04-1.82416E-07
 -1       250 8.46568E-08 1.05790E-03-6.22419E-05
 -1       251-2.58913E-07 7.59809E-04-1.73788E-06
 -1       252-8.31936E-13 8.35865E-04-7.11827E-07
 -1       253 2.58932E-07 7.59640E-04-1.73787E-06
 -1       254-8.46770E-08 1.06324E-03 6.45511E-05
 -1       255 1.49988E-12 8.54720E-04-2.41445E-07
 -1       256-1.32090E-08 4.76984E-04-1.26850E-04
 -1       257 4.92778E-07 5.50424E-04 3.02423E-08
 -1       258-1.15120E-12 4.77397E-04-6.89307E-08
 -1       259-4.92773E-07 5.50450E-04 3.02437E-08
 -1       260 1.32075E-08 4.75537E-04 1.26273E-04
 -1       261-9.90121E-13 2.13886E-04 1.21062E-07
 -3
    1PSTEP                         5           5           1          
  100CL  105 1.00000E-01          81                     1    5           1
 -4  DISP        4    1
 -5  D1          1    2    1    0
 -5  D2          1    2    2    0
 -5  D3          1    2    3    0
 -5  ALL         1    2    0    0    1ALL
 -1         5 0.00000E+00 0.00000E+00 0.00000E+00
 -1         6 0.00000E+00 0.00000E+00 0.00000E+00
 -1         7 0.00000E+00 0.00000E+00 0.00000E+00
 -1         8 0.00000E+00 0.00000E+00 0.00000E+00
 -1        21 0.00000E+00 0.00000E+00 0.00000E+00
 -1        22 0.00000E+00 0.00000E+00 0.00000E+00
 -1        23 0.00000E+00 0.00000E+00 0.00000E+00
 -1        24 0.00000E+00 0.00000E+00 0.00000E+00
 -1        25 0.00000E+00 0.00000E+00 0.00000E+00
 -1        26 0.00000E+00 0.00000E+00 0.00000E+00
 -1        27 0.00000E+00 0.00000E+00 0.00000E+00
 -1        28 0.00000E+00 0.00000E+00 0.00000E+00
 -1        29 0.00000E+00 0.00000E+00 0.00000E+00
 -1        30 0.00000E+00 0.00000E+00 0.00000E+00
 -1        31 0.00000E+00 0.00000E+00 0.00000E+00
 -1        32 0.00000E+00 0.00000E+00 0.00000E+00
 -1        44 6.48898E-05-7.60682E-04 1.14489E-04
 -1        45 1.10905E-05-5.66605E-04 1.93565E-04
 -1        46-1.44007E-05-4.33212E-04 2.02993E-04
 -1        47 2.21494E-05-1.75513E-04 1.30863E-04
 -1        48-2.22348E-05-1.75598E-04 1.31124E-04
 -1        49 1.50975E-05-4.32515E-04 2.03213E-04
 -1        50-1.17383E-05-5.67253E-04 1.91349E-04
 -1        51-6.00367E-05-7.55828E-04 1.06464E-04
 -1        74-6.32974E-05-7.70061E-04-1.13280E-04
 -1        75-8.43247E-06-5.71142E-04-1.92613E-04
 -1        76 1.29797E-05-4.30441E-04-2.02363E-04
 -1        77-2.27780E-05-1.73930E-04-1.30721E-04
 -1        89 5.84437E-05-7.65206E-04-1.05254E-04
 -1        90 9.08012E-06-5.71791E-04-1.90397E-04
 -1        91-1.36767E-05-4.29744E-04-2.02583E-04
 -1        92 2.28634E-05-1.74016E-04-1.30981E-04
 -1        98 0.00000E+00 0.00000E+00 0.00000E+00
 -1        99 0.00000E+00 0.00000E+00 0.00000E+00
 -1       100 0.00000E+00 0.00000E+00 0.00000E+00
 -1       101 0.00000E+00 0.00000E+00 0.00000E+00
 -1       102 0.00000E+00 0.00000E+00 0.00000E+00
 -1       124-2.79238E-05-6.94065E-04 1.05126E-04
 -1       125 6.67345E-07-7.75777E-04 1.07545E-04
 -1       126 3.06184E-05-6.96836E-04 1.07943E-04
 -1       127-1.05615E-07-5.92750E-04 1.75509E-04
 -1       128 8.23430E-06-4.43441E-04 2.13646E-04
 -1       129-3.00732E-08-4.15094E-04 2.17361E-04
 -1       130-7.89601E-06-4.43689E-04 2.13914E-04
 -1       131 2.28496E-08-1.74600E-04 1.27537E-04
 -1       153-3.71209E-05-9.20079E-04 5.25948E-05
 -1       154-1.99038E-06-7.90465E-04 4.20630E-07
 -1       155 3.70839E-05-9.21845E-04-5.21832E-05
 -1       156-1.49531E-06-6.12392E-04-2.88272E-07
 -1       157 9.43498E-06-3.80682E-04 8.64381E-05
 -1       158 1.05541E-06-4.03678E-04 2.87610E-08
 -1       159-9.42931E-06-3.80050E-04-8.58497E-05
 -1       160 4.42005E-07-1.50042E-04 1.23343E-07
 -1       182-3.22892E-05-6.91070E-04-1.06621E-04
 -1       183-6.67468E-07-7.82860E-04-1.07131E-04
 -1       184 2.95942E-05-6.88299E-04-1.03804E-04
 -1       185 1.05592E-07-5.95478E-04-1.73989E-04
 -1       186 7.79724E-06-4.44737E-04-2.13871E-04
 -1       187 3.00074E-08-4.13101E-04-2.17115E-04
 -1       188-8.13569E-06-4.44489E-04-2.13602E-04
 -1       189-2.28490E-08-1.73701E-04-1.27345E-04
 -1       211-3.98541E-05-9.19150E-04-4.93670E-05
 -1       212 1.99063E-06-7.89131E-04 4.20321E-07
 -1       213 3.98911E-05-9.17384E-04 4.97786E-05
 -1       214 1.49521E-06-6.12603E-04-2.88275E-07
 -1       215 9.18125E-06-3.79712E-04-8.55811E-05
 -1       216-1.05538E-06-4.03738E-04 2.87943E-08
 -1       217-9.18697E-06-3.80344E-04 8.61697E-05
 -1       218-4.42030E-07-1.49996E-04 1.23333E-07
 -1       250 6.15899E-07-8.05308E-04 4.13518E-05
 -1       251 4.76865E-07-5.70510E-04 1.01307E-06
 -1       252-2.86875E-11-6.29061E-04 4.43318E-07
 -1       253-4.76816E-07-5.71741E-04 1.01313E-06
 -1       254-6.16023E-07-8.08503E-04-4.20296E-05
 -1       255-1.82545E-11-6.50576E-04 1.28519E-07
 -1       256-9.60771E-08-3.59513E-04 9.75203E-05
 -1       257-3.92840E-07-4.16567E-04 1.08625E-07
 -1       258-1.38930E-11-3.58766E-04 2.10877E-07
 -1       259 3.92851E-07-4.16375E-04 1.08631E-07
 -1       260 9.60405E-08-3.58582E-04-9.69546E-05
 -1       261-8.77019E-12-1.61811E-04 2.34551E-09
 -3
    1PSTEP                         6           6           1          
  100CL  106 1.20000E-01          81                     1    6           1
 -4  DISP        4    1
 -5  D1          1    2    1    0
 -5  D2          1    2    2    0
 -5  D3          1    2    3    0
 -5  ALL         1    2    0    0    1ALL
 -1         5 0.00000E+00 0.00000E+00 0.00000E+00
 -1         6 0.00000E+00 0.00000E+00 0.00000E+00
 -1         7 0.00000E+00 0.00000E+00 0.00000E+00
 -1         8 0.00000E+00 0.00000E+00 0.00000E+00
 -1        21 0.00000E+00 0.00000E+00 0.00000E+00
 -1        22 0.00000E+00 0.00000E+00 0.00000E+00
 -1        23 0.00000E+00 0.00000E+00 0.00000E+00
 -1        24 0.00000E+00 0.00000E+00 0.00000E+00
 -1        25 0.00000E+00 0.00000E+00 0.00000E+00
 -1        26 0.00000E+00 0.00000E+00 0.00000E+00
 -1        27 0.00000E+00 0.00000E+00 0.00000E+00
 -1        28 0.00000E+00 0.00000E+00 0.00000E+00
 -1        29 0.00000E+00 0.00000E+00 0.00000E+00
 -1        30 0.00000E+00 0.00000E+00 0.00000E+00
 -1        31 0.00000E+00 0.00000E+00 0.00000E+00
 -1        32 0.00000E+00 0.00000E+00 0.00000E+00
 -1        44-3.24113E-05 5.59188E-04-8.06824E-05
 -1        45-8.00849E-06 4.18209E-04-1.40461E-04
 -1        46 1.12934E-05 3.13106E-04-1.46901E-04
 -1        47-1.72672E-05 1.27550E-04-9.58133E-05