    1C
    1UUSER                                                              
    1UDATE              11.july.2018                                    
    1UTIME              16:21:17                                        
    1UHOST                                                              
    1UPGM               CalculiX                                        
    1UVERSION           Version 2.13                             
    1UCOMPILETIME       jue jun 14 00:40:39 CEST 2018                    
    1UDIR                                                               
    1UDBN                                                               
    1UMAT    1EL                                                        
    2C                            81                                     1
 -1         5 0.00000E+00 0.00000E+00 8.00000E+00
 -1         6 1.00000E+00 0.00000E+00 8.00000E+00
 -1         7 1.00000E+00 1.00000E+00 8.00000E+00
 -1         8 0.00000E+00 1.00000E+00 8.00000E+00
 -1        21 2.50000E-01 0.00000E+00 8.00000E+00
 -1        22 5.00000E-01 0.00000E+00 8.00000E+00
 -1        23 7.50000E-01 0.00000E+00 8.00000E+00
 -1        24 1.00000E+00 2.50000E-01 8.00000E+00
 -1        25 1.00000E+00 5.00000E-01 8.00000E+00
 -1        26 1.00000E+00 7.50000E-01 8.00000E+00
 -1        27 7.50000E-01 1.00000E+00 8.00000E+00
 -1        28 5.00000E-01 1.00000E+00 8.00000E+00
 -1        29 2.50000E-01 1.00000E+00 8.00000E+00
 -1        30 0.00000E+00 7.50000E-01 8.00000E+00
 -1        31 0.00000E+00 5.00000E-01 8.00000E+00
 -1        32 0.00000E+00 2.50000E-01 8.00000E+00
 -1        44 1.00000E+00 0.00000E+00 6.00000E+00
 -1        45 1.00000E+00 0.00000E+00 6.50000E+00
 -1        46 1.00000E+00 0.00000E+00 7.00000E+00
 -1        47 1.00000E+00 0.00000E+00 7.50000E+00
 -1        48 0.00000E+00 0.00000E+00 7.50000E+00
 -1        49 0.00000E+00 0.00000E+00 7.00000E+00
 -1        50 0.00000E+00 0.00000E+00 6.50000E+00
 -1        51 0.00000E+00 0.00000E+00 6.00000E+00
 -1        74 1.00000E+00 1.00000E+00 6.00000E+00
 -1        75 1.00000E+00 1.00000E+00 6.50000E+00
 -1        76 1.00000E+00 1.00000E+00 7.00000E+00
 -1        77 1.00000E+00 1.00000E+00 7.50000E+00
 -1        89 0.00000E+00 1.00000E+00 6.00000E+00
 -1        90 0.00000E+00 1.00000E+00 6.50000E+00
 -1        91 0.00000E+00 1.00000E+00 7.00000E+00
 -1        92 0.00000E+00 1.00000E+00 7.50000E+00
 -1        98 5.00000E-01 2.50000E-01 8.00000E+00
 -1        99 2.50000E-01 5.00000E-01 8.00000E+00
 -1       100 5.00000E-01 5.00000E-01 8.00000E+00
 -1       101 7.50000E-01 5.00000E-01 8.00000E+00
 -1       102 5.00000E-01 7.50000E-01 8.00000E+00
 -1       124 2.50000E-01 0.00000E+00 6.00000E+00
 -1       125 5.00000E-01 0.00000E+00 6.00000E+00
 -1       126 7.50000E-01 0.00000E+00 6.00000E+00
 -1       127 5.00000E-01 0.00000E+00 6.50000E+00
 -1       128 2.50000E-01 0.00000E+00 7.00000E+00
 -1       129 5.00000E-01 0.00000E+00 7.00000E+00
 -1       130 7.50000E-01 0.00000E+00 7.00000E+00
 -1       131 5.00000E-01 0.00000E+00 7.50000E+00
 -1       153 1.00000E+00 2.50000E-01 6.00000E+00
 -1       154 1.00000E+00 5.00000E-01 6.00000E+00
 -1       155 1.00000E+00 7.50000E-01 6.00000E+00
 -1       156 1.00000E+00 5.00000E-01 6.50000E+00
 -1       157 1.00000E+00 2.50000E-01 7.00000E+00
 -1       158 1.00000E+00 5.00000E-01 7.00000E+00
 -1       159 1.00000E+00 7.50000E-01 7.00000E+00
 -1       160 1.00000E+00 5.00000E-01 7.50000E+00
 -1       182 7.50000E-01 1.00000E+00 6.00000E+00
 -1       183 5.00000E-01 1.00000E+00 6.00000E+00
 -1       184 2.50000E-01 1.00000E+00 6.00000E+00
 -1       185 5.00000E-01 1.00000E+00 6.50000E+00
 -1       186 7.50000E-01 1.00000E+00 7.00000E+00
 -1       187 5.00000E-01 1.00000E+00 7.00000E+00
 -1       188 2.50000E-01 1.00000E+00 7.00000E+00
 -1       189 5.00000E-01 1.00000E+00 7.50000E+00
 -1       211 0.00000E+00 7.50000E-01 6.00000E+00
 -1       212 0.00000E+00 5.00000E-01 6.00000E+00
 -1       213 0.00000E+00 2.50000E-01 6.00000E+00
 -1       214 0.00000E+00 5.00000E-01 6.50000E+00
 -1       215 0.00000E+00 7.50000E-01 7.00000E+00
 -1       216 0.00000E+00 5.00000E-01 7.00000E+00
 -1       217 0.00000E+00 2.50000E-01 7.00000E+00
 -1       218 0.00000E+00 5.00000E-01 7.50000E+00
 -1       250 5.00000E-01 2.50000E-01 6.00000E+00
 -1       251 2.50000E-01 5.00000E-01 6.00000E+00
 -1       252 5.00000E-01 5.00000E-01 6.00000E+00
 -1       253 7.50000E-01 5.00000E-01 6.00000E+00
 -1       254 5.00000E-01 7.50000E-01 6.00000E+00
 -1       255 5.00000E-01 5.00000E-01 6.50000E+00
 -1       256 5.00000E-01 2.50000E-01 7.00000E+00
 -1       257 2.50000E-01 5.00000E-01 7.00000E+00
 -1       258 5.00000E-01 5.00000E-01 7.00000E+00
 -1       259 7.50000E-01 5.00000E-01 7.00000E+00
 -1       260 5.00000E-01 7.50000E-01 7.00000E+00
 -1       261 5.00000E-01 5.00000E-01 7.50000E+00
 -3
    3C                             8                                     1
 -1        25    4    0    1
 -2        51       125       252       212        49       129       258       216       124       250
 -2       251       213        50       127       255       214       128       256       257       217
 -1        26    4    0    1
 -2       125        44       154       252       129        46       158       258       126       153
 -2       253       250       127        45       156       255       130       157       259       256
 -1        27    4    0    1
 -2       212       252       183        89       216       258       187        91       251       254
 -2       184       211       214       255       185        90       257       260       188       215
 -1        28    4    0    1
 -2       252       154        74       183       258       158        76       187       253       155
 -2       182       254       255       156        75       185       259       159       186       260
 -1        29    4    0    1
 -2        49       129       258       216         5        22       100        31       128       256
 -2       257       217        48       131       261       218        21        98        99        32
 -1        30    4    0    1
 -2       129        46       158       258        22         6        25       100       130       157
 -2       259       256       131        47       160       261        23        24       101        98
 -1        31    4    0    1
 -2       216       258       187        91        31       100        28         8       257       260
 -2       188       215       218       261       189        92        99       102        29        30
 -1        32    4    0    1
 -2       258       158        76       187       100        25         7        28       259       159
 -2       186       260       261       160        77       189       101        26        27       102
 -3
    1PSTEP                         1           1           1          
  100CL  101 2.50000E-03          81                     1    1           1
 -4  DISP        4    1
 -5  D1          1    2    1    0
 -5  D2          1    2    2    0
 -5  D3          1    2    3    0
 -5  ALL         1    2    0    0    1ALL
 -1         5 0.00000E+00 0.00000E+00 0.00000E+00
 -1         6 0.00000E+00 0.00000E+00 0.00000E+00
 -1         7 0.00000E+00 0.00000E+00 0.00000E+00
 -1         8 0.00000E+00 0.00000E+00 0.00000E+00
 -1        21 0.00000E+00 0.00000E+00 0.00000E+00
 -1        22 0.00000E+00 0.00000E+00 0.00000E+00
 -1        23 0.00000E+00 0.00000E+00 0.00000E+00
 -1        24 0.00000E+00 0.00000E+00 0.00000E+00
 -1        25 0.00000E+00 0.00000E+00 0.00000E+00
 -1        26 0.00000E+00 0.00000E+00 0.00000E+00
 -1        27 0.00000E+00 0.00000E+00 0.00000E+00
 -1        28 0.00000E+00 0.00000E+00 0.00000E+00
 -1        29 0.00000E+00 0.00000E+00 0.00000E+00
 -1        30 0.00000E+00 0.00000E+00 0.00000E+00
 -1        31 0.00000E+00 0.00000E+00 0.00000E+00
 -1        32 0.00000E+00 0.00000E+00 0.00000E+00
 -1        44-1.23365E-04-4.11747E-03 5.33305E-04
 -1        45 8.07825E-05-3.03749E-03 9.18364E-04
 -1        46-6.56117E-05-2.17007E-03 1.15821E-03
 -1        47 1.60737E-04-7.94905E-04 6.45720E-04
 -1        48-1.60674E-04-7.94888E-04 6.45645E-04
 -1        49 6.54306E-05-2.17017E-03 1.15816E-03
 -1        50-8.04904E-05-3.03744E-03 9.18503E-04
 -1        51 1.22242E-04-4.11744E-03 5.34134E-04
 -1        74 4.10829E-04-5.35573E-03-6.08109E-04
 -1        75 2.24073E-04-3.56420E-03-9.24441E-04
 -1        76-1.35926E-04-1.91932E-03-1.16062E-03
 -1        77-2.57496E-04-5.99885E-04-6.66643E-04
 -1        89-4.11930E-04-5.35578E-03-6.07298E-04
 -1        90-2.23794E-04-3.56424E-03-9.24298E-04
 -1        91 1.35756E-04-1.91923E-03-1.16066E-03
 -1        92 2.57558E-04-5.99900E-04-6.66711E-04
 -1        98 0.00000E+00 0.00000E+00 0.00000E+00
 -1        99 0.00000E+00 0.00000E+00 0.00000E+00
 -1       100 0.00000E+00 0.00000E+00 0.00000E+00
 -1       101 0.00000E+00 0.00000E+00 0.00000E+00
 -1       102 0.00000E+00 0.00000E+00 0.00000E+00
 -1       124 3.23094E-04-3.54553E-03 5.11579E-04
 -1       125 1.24293E-07-4.37053E-03 5.37136E-04
 -1       126-3.23446E-04-3.54555E-03 5.11731E-04
 -1       127-8.87079E-08-3.08197E-03 1.12900E-03
 -1       128-3.78379E-05-2.34273E-03 1.13984E-03
 -1       129 1.16378E-07-2.14978E-03 1.12233E-03
 -1       130 3.78520E-05-2.34269E-03 1.13973E-03
 -1       131 1.58082E-09-8.71933E-04 6.63409E-04
 -1       153 1.43418E-04-4.31339E-03 2.22106E-04
 -1       154-1.77662E-04-2.68763E-03-3.12740E-05
 -1       155-1.20547E-04-4.61510E-03-2.92179E-04
 -1       156-1.62952E-04-3.36239E-03-8.74854E-05
 -1       157-4.47642E-05-1.75980E-03 4.72513E-04
 -1       158 1.22997E-04-1.82733E-03-4.05864E-05
 -1       159 7.78999E-05-1.72808E-03-5.01490E-04
 -1       160 5.49809E-05-7.92675E-04 7.22265E-06
 -1       182 2.25004E-04-3.01457E-03-5.73620E-04
 -1       183 1.02079E-07-5.39770E-03-5.80095E-04
 -1       184-2.25368E-04-3.01458E-03-5.73752E-04
 -1       185-8.13045E-08-3.45862E-03-1.09358E-03
 -1       186-7.41754E-05-2.63522E-03-1.19058E-03
 -1       187 1.10325E-07-2.19267E-03-1.16040E-03
 -1       188 7.41886E-05-2.63519E-03-1.19048E-03
 -1       189 2.41471E-09-8.53087E-04-6.77469E-04
 -1       211 1.20167E-04-4.61514E-03-2.91912E-04
 -1       212 1.77993E-04-2.68760E-03-3.16411E-05
 -1       213-1.43803E-04-4.31333E-03 2.22355E-04
 -1       214 1.62887E-04-3.36239E-03-8.75088E-05
 -1       215-7.79188E-05-1.72802E-03-5.01506E-04
 -1       216-1.22847E-04-1.82733E-03-4.05612E-05
 -1       217 4.47393E-05-1.75985E-03 4.72500E-04
 -1       218-5.49730E-05-7.92676E-04 7.22193E-06
 -1       250 6.66161E-08-4.94758E-03 2.07887E-04
 -1       251 3.14368E-05-3.09345E-03-1.30810E-05
 -1       252 1.63679E-09-3.85992E-03-1.07124E-05
 -1       253-3.13063E-05-3.09347E-03-1.30429E-05
 -1       254 5.38343E-08-5.42525E-03-3.23454E-04
 -1       255 2.47410E-08-3.04760E-03-4.29475E-05
 -1       256 6.57466E-08-1.94792E-03 4.70852E-04
 -1       257-5.41324E-05-2.07284E-03-1.78559E-05
 -1       258 1.44958E-08-2.20052E-03-2.21234E-05
 -1       259 5.42285E-05-2.07285E-03-1.78333E-05
 -1       260 6.30524E-08-1.97015E-03-5.02388E-04
 -1       261 1.42214E-08-8.56992E-04-3.14214E-06
 -3
    1PSTEP                         2           2           1          
  100CL  102 5.00000E-03          81                     1    2           1
 -4  DISP        4    1
 -5  D1          1    2    1    0
 -5  D2          1    2    2    0
 -5  D3          1    2    3    0
 -5  ALL         1    2    0    0    1ALL
 -1         5 0.00000E+00 0.00000E+00 0.00000E+00
 -1         6 0.00000E+00 0.00000E+00 0.00000E+00
 -1         7 0.00000E+00 0.00000E+00 0.00000E+00
 -1         8 0.00000E+00 0.00000E+00 0.00000E+00
 -1        21 0.00000E+00 0.00000E+00 0.00000E+00
 -1        22 0.00000E+00 0.00000E+00 0.00000E+00
 -1        23 0.00000E+00 0.00000E+00 0.00000E+00
 -1        24 0.00000E+00 0.00000E+00 0.00000E+00
 -1        25 0.00000E+00 0.00000E+00 0.00000E+00
 -1        26 0.00000E+00 0.00000E+00 0.00000E+00
 -1        27 0.00000E+00 0.00000E+00 0.00000E+00
 -1        28 0.00000E+00 0.00000E+00 0.00000E+00
 -1        29 0.00000E+00 0.00000E+00 0.00000E+00
 -1        30 0.00000E+00 0.00000E+00 0.00000E+00
 -1        31 0.00000E+00 0.00000E+00 0.00000E+00
 -1        32 0.00000E+00 0.00000E+00 0.00000E+00
 -1        44-3.49049E-04 1.75699E-04-7.26140E-05
 -1        45-1.63658E-05 2.48892E-04-6.12081E-05
 -1        46 3.69675E-05 2.42724E-04-2.82721E-05
 -1        47 6.00974E-06 1.44643E-04-8.97305E-05
 -1        48-5.97527E-06 1.44656E-04-8.97808E-05
 -1        49-3.69485E-05 2.42725E-04-2.83365E-05
 -1        50 1.65857E-05 2.48878E-04-6.12434E-05
 -1        51 3.48932E-04 1.75798E-04-7.25379E-05
 -1        74 5.52194E-04-6.63322E-04 3.12393E-05
 -1        75 2.26065E-04-1.10705E-04 6.34947E-05
 -1        76-1.74044E-04 4.18639E-04 2.84548E-05
 -1        77-7.11221E-05 2.75844E-04 7.61281E-05
 -1        89-5.52308E-04-6.63410E-04 3.13117E-05
 -1        90-2.25845E-04-1.10696E-04 6.34521E-05
 -1        91 1.74061E-04 4.18643E-04 2.83972E-05
 -1        92 7.11576E-05 2.75829E-04 7.60786E-05
 -1        98 0.00000E+00 0.00000E+00 0.00000E+00
 -1        99 0.00000E+00 0.00000E+00 0.00000E+00
 -1       100 0.00000E+00 0.00000E+00 0.00000E+00
 -1       101 0.00000E+00 0.00000E+00 0.00000E+00
 -1       102 0.00000E+00 0.00000E+00 0.00000E+00
 -1       124 1.57972E-04 3.44956E-04-6.18767E-05
 -1       125 1.38660E-07 3.75986E-04-6.69082E-05
 -1       126-1.57874E-04 3.44890E-04-6.17286E-05
 -1       127 2.92907E-08 3.44377E-04-3.74807E-05
 -1       128-1.74590E-05 2.01361E-04-9.19827E-05
 -1       129 7.27847E-08 1.86185E-04-1.15072E-04
 -1       130 1.75380E-05 2.01362E-04-9.19936E-05
 -1       131 7.63816E-09 1.04585E-04-6.30197E-05
 -1       153 3.08876E-04 6.13101E-04-3.91821E-05
 -1       154-1.18375E-04 1.18777E-03-1.84493E-05
 -1       155-2.92199E-04 4.08945E-04-3.00297E-06
 -1       156-1.10931E-04 3.65101E-04-5.70720E-05
 -1       157-6.75008E-05 2.59145E-04-2.72765E-05
 -1       158 8.27087E-05 2.35109E-04-2.61838E-05
 -1       159 8.83294E-05 2.84139E-04 1.04574E-05
 -1       160 3.66332E-05 3.78249E-05 4.50942E-06
 -1       182 9.74264E-05 7.06910E-04 2.46058E-05
 -1       183 1.47156E-07-3.18430E-04 4.22766E-05
 -1       184-9.73187E-05 7.06847E-04 2.44721E-05
 -1       185 2.97301E-08 9.44993E-05 6.18544E-05
 -1       186-4.31461E-05 1.30082E-05 6.11321E-05
 -1       187 7.35574E-08 1.72561E-04 9.38731E-05
 -1       188 4.32248E-05 1.30113E-05 6.11429E-05
 -1       189 7.31043E-09 1.21471E-04 5.58409E-05
 -1       211 2.92211E-04 4.08893E-04-2.95901E-06
 -1       212 1.18515E-04 1.18776E-03-1.85150E-05
 -1       213-3.08870E-04 6.13148E-04-3.91442E-05
 -1       214 1.11080E-04 3.65102E-04-5.71292E-05
 -1       215-8.82837E-05 2.84139E-04 1.03929E-05
 -1       216-8.26320E-05 2.35106E-04-2.62366E-05
 -1       217 6.75483E-05 2.59144E-04-2.73427E-05
 -1       218-3.66008E-05 3.78251E-05 4.47698E-06
 -1       250 1.38043E-07 2.54407E-04-5.23657E-05
 -1       251 2.06548E-05 1.47125E-04-9.20621E-06
 -1       252 1.25069E-07 3.55666E-04-1.38683E-05
 -1       253-2.04586E-05 1.47131E-04-9.13739E-06
 -1       254 1.42853E-07-6.66776E-05-1.86934E-05
 -1       255 5.68824E-08 4.65372E-04-2.90497E-05
 -1       256 6.05958E-08 1.49956E-04-6.55315E-05
 -1       257-3.58867E-05 2.90460E-04-1.08654E-05
 -1       258 5.00098E-08 4.87142E-05-1.31088E-05
 -1       259 3.59743E-05 2.90462E-04-1.08475E-05
 -1       260 6.09892E-08 1.41779E-04 4.52923E-05
 -1       261 1.28105E-08 6.50095E-05-1.87297E-06
 -3
    1PSTEP                         3           3           1          
  100CL  103 7.50000E-03          81                     1    3           1
 -4  DISP        4    1
 -5  D1          1    2    1    0
 -5  D2          1    2    2    0
 -5  D3          1    2    3    0
 -5  ALL         1    2    0    0    1ALL
 -1         5 0.00000E+00 0.00000E+00 0.00000E+00
 -1         6 0.00000E+00 0.00000E+00 0.00000E+00
 -1         7 0.00000E+00 0.00000E+00 0.00000E+00
 -1         8 0.00000E+00 0.00000E+00 0.00000E+00
 -1        21 0.00000E+00 0.00000E+00 0.00000E+00
 -1        22 0.00000E+00 0.00000E+00 0.00000E+00
 -1        23 0.00000E+00 0.00000E+00 0.00000E+00
 -1        24 0.00000E+00 0.00000E+00 0.00000E+00
 -1        25 0.00000E+00 0.00000E+00 0.00000E+00
 -1        26 0.00000E+00 0.00000E+00 0.00000E+00
 -1        27 0.00000E+00 0.00000E+00 0.00000E+00
 -1        28 0.00000E+00 0.00000E+00 0.00000E+00
 -1        29 0.00000E+00 0.00000E+00 0.00000E+00
 -1        30 0.00000E+00 0.00000E+00 0.00000E+00
 -1        31 0.00000E+00 0.00000E+00 0.00000E+00
 -1        32 0.00000E+00 0.00000E+00 0.00000E+00
 -1        44 3.41088E-05-1.97887E-03 2.66683E-04
 -1        45 3.92133E-05-1.48330E-03 4.56864E-04
 -1        46-3.85577E-05-1.06639E-03 5.42879E-04
 -1        47 7.12110E-05-4.08706E-04 3.23178E-04
 -1        48-7.13020E-05-4.08736E-04 3.23292E-04
 -1        49 3.83070E-05-1.06637E-03 5.43080E-04
 -1        50-3.97181E-05-1.48339E-03 4.57063E-04
 -1        51-3.47335E-05-1.97853E-03 2.66670E-04
 -1        74 4.71162E-05-2.36790E-03-2.87336E-04
 -1        75 5.20379E-05-1.64814E-03-4.56480E-04
 -1        76-2.39896E-05-9.86080E-04-5.43558E-04
 -1        77-1.00375E-04-3.47617E-04-3.30134E-04
 -1        89-4.77176E-05-2.36823E-03-2.87370E-04
 -1        90-5.25531E-05-1.64806E-03-4.56293E-04
 -1        91 2.37417E-05-9.86108E-04-5.43341E-04
 -1        92 1.00284E-04-3.47589E-04-3.30015E-04
 -1        98 0.00000E+00 0.00000E+00 0.00000E+00
 -1        99 0.00000E+00 0.00000E+00 0.00000E+00
 -1       100 0.00000E+00 0.00000E+00 0.00000E+00
 -1       101 0.00000E+00 0.00000E+00 0.00000E+00
 -1       102 0.00000E+00 0.00000E+00 0.00000E+00
 -1       124 7.88880E-05-1.74305E-03 2.55176E-04
 -1       125-3.70592E-07-2.09702E-03 2.66601E-04
 -1       126-7.95724E-05-1.74319E-03 2.55155E-04
 -1       127-2.20916E-07-1.51426E-03 5.19112E-04
 -1       128-5.72704E-06-1.13770E-03 5.52963E-04
 -1       129-1.42625E-07-1.05270E-03 5.53334E-04
 -1       130 5.46193E-06-1.13772E-03 5.52871E-04
 -1       131-3.80127E-08-4.32429E-04 3.24733E-04
 -1       153-1.66803E-05-2.19185E-03 1.14923E-04
 -1       154-5.94492E-05-1.61864E-03-9.03890E-06
 -1       155 3.04801E-05-2.27816E-03-1.36343E-04
 -1       156-5.34916E-05-1.63302E-03-2.68814E-05
 -1       157 2.20631E-07-8.97390E-04 2.25773E-04
 -1       158 4.04968E-05-9.34244E-04-1.25640E-05
 -1       159 8.98901E-06-8.88621E-04-2.34519E-04
 -1       160 1.75976E-05-3.79078E-04 2.11906E-06
 -1       182 3.75277E-05-1.57388E-03-2.73740E-04
 -1       183-3.68695E-07-2.42894E-03-2.78907E-04
 -1       184-3.82006E-05-1.57402E-03-2.73681E-04
 -1       185-2.15458E-07-1.63685E-03-5.10506E-04
 -1       186-1.53644E-05-1.22955E-03-5.68351E-04
 -1       187-1.45357E-07-1.06330E-03-5.64968E-04
 -1       188 1.50981E-05-1.22957E-03-5.68261E-04
 -1       189-3.81217E-08-4.24889E-04-3.28449E-04
 -1       211-3.06534E-05-2.27831E-03-1.36353E-04
 -1       212 5.96654E-05-1.61865E-03-9.35624E-06
 -1       213 1.64920E-05-2.19171E-03 1.14892E-04
 -1       214 5.27316E-05-1.63302E-03-2.67800E-05
 -1       215-9.14739E-06-8.88640E-04-2.34330E-04
 -1       216-4.05459E-05-9.34247E-04-1.23222E-05
 -1       217-3.79495E-07-8.97373E-04 2.25961E-04
 -1       218-1.77277E-05-3.79079E-04 2.31739E-06
 -1       250-4.73666E-07-2.31445E-03 1.07967E-04
 -1       251 5.60751E-06-1.48852E-03-4.80635E-06
 -1       252-5.66887E-07-1.80657E-03-7.06898E-06
 -1       253-6.10520E-06-1.48852E-03-5.23018E-06
 -1       254-4.72796E-07-2.47888E-03-1.42756E-04
 -1       255-1.22755E-07-1.55012E-03-1.43723E-05
 -1       256-1.99090E-07-9.37978E-04 2.36219E-04
 -1       257-1.67352E-05-1.03771E-03-5.45016E-06
 -1       258-2.52339E-07-1.02013E-03-6.57438E-06
 -1       259 1.64624E-05-1.03771E-03-5.43625E-06
 -1       260-2.00236E-07-9.41418E-04-2.46456E-04
 -1       261-2.37711E-08-4.17288E-04-8.49893E-07
 -3
    1PSTEP                         4           4           1          
  100CL  104 1.00000E-02          81                     1    4           1
 -4  DISP        4    1
 -5  D1          1    2    1    0
 -5  D2          1    2    2    0
 -5  D3          1    2    3    0
 -5  ALL         1    2    0    0    1ALL
 -1         5 0.00000E+00 0.00000E+00 0.00000E+00
 -1         6 0.00000E+00 0.00000E+00 0.00000E+00
 -1         7 0.00000E+00 0.00000E+00 0.00000E+00
 -1         8 0.00000E+00 0.00000E+00 0.00000E+00
 -1        21 0.00000E+00 0.00000E+00 0.00000E+00
 -1        22 0.00000E+00 0.00000E+00 0.00000E+00
 -1        23 0.00000E+00 0.00000E+00 0.00000E+00
 -1        24 0.00000E+00 0.00000E+00 0.00000E+00
 -1        25 0.00000E+00 0.00000E+00 0.00000E+00
 -1        26 0.00000E+00 0.00000E+00 0.00000E+00
 -1        27 0.00000E+00 0.00000E+00 0.00000E+00
 -1        28 0.00000E+00 0.00000E+00 0.00000E+00
 -1        29 0.00000E+00 0.00000E+00 0.00000E+00
 -1        30 0.00000E+00 0.00000E+00 0.00000E+00
 -1        31 0.00000E+00 0.00000E+00 0.00000E+00
 -1        32 0.00000E+00 0.00000E+00 0.00000E+00
 -1        44-8.51351E-05 1.00094E-03-1.43929E-04
 -1        45-1.96957E-05 7.74862E-04-2.31914E-04
 -1        46 2.25271E-05 5.57729E-04-2.67483E-04
 -1        47-3.45137E-05 2.25267E-04-1.74338E-04
 -1        48 3.45097E-05 2.25263E-04-1.74337E-04
 -1        49-2.25029E-05 5.57730E-04-2.67504E-04
 -1        50 1.96789E-05 7.74875E-04-2.31899E-04
 -1        51 8.52418E-05 1.00085E-03-1.43911E-04
 -1        74 6.54417E-05 1.01537E-03 1.44078E-04
 -1        75 9.81581E-06 7.83575E-04 2.32171E-04
 -1        76-1.83915E-05 5.54340E-04 2.67703E-04
 -1        77 3.73694E-05 2.22948E-04 1.74341E-04
 -1        89-6.53481E-05 1.01545E-03 1.44056E-04
 -1        90-9.82236E-06 7.83554E-04 2.32146E-04
 -1        91 1.83999E-05 5.54353E-04 2.67712E-04
 -1        92-3.73678E-05 2.22946E-04 1.74344E-04
 -1        98 0.00000E+00 0.00000E+00 0.00000E+00
 -1        99 0.00000E+00 0.00000E+00 0.00000E+00
 -1       100 0.00000E+00 0.00000E+00 0.00000E+00
 -1       101 0.00000E+00 0.00000E+00 0.00000E+00
 -1       102 0.00000E+00 0.00000E+00 0.00000E+00
 -1       124 1.13267E-05 9.08909E-04-1.35670E-04
 -1       125-2.72818E-08 1.09193E-03-1.41967E-04
 -1       126-1.13047E-05 9.08963E-04-1.35703E-04
 -1       127 1.74189E-08 7.99031E-04-2.58463E-04
 -1       128-3.34776E-06 5.91964E-04-2.85919E-04
 -1       129-1.40771E-08 5.50632E-04-2.90933E-04
 -1       130 3.34661E-06 5.91962E-04-2.85903E-04
 -1       131 2.04699E-09 2.31572E-04-1.70463E-04
 -1       153 7.14534E-05 1.16438E-03-6.38989E-05
 -1       154-4.84028E-06 1.03221E-03 2.75804E-08
 -1       155-6.43287E-05 1.17925E-03 6.39991E-05
 -1       156-6.79167E-07 8.71705E-04 8.30896E-07
 -1       157-1.44408E-05 4.86453E-04-1.15522E-04
 -1       158 1.25705E-06 4.92512E-04 3.67793E-07
 -1       159 1.28764E-05 4.83083E-04 1.15470E-04
 -1       160 1.79985E-07 1.89029E-04 7.74813E-08
 -1       182-5.93712E-06 9.05028E-04 1.35789E-04
 -1       183 2.28422E-08 1.09428E-03 1.41801E-04
 -1       184 5.99922E-06 9.05066E-04 1.35849E-04
 -1       185 1.18152E-08 7.96824E-04 2.56622E-04
 -1       186 3.07380E-07 5.92801E-04 2.86019E-04
 -1       187-2.98829E-09 5.50642E-04 2.90150E-04
 -1       188-3.05110E-07 5.92809E-04 2.86008E-04
 -1       189 4.04738E-10 2.32235E-04 1.70466E-04
 -1       211 6.43650E-05 1.17927E-03 6.39935E-05
 -1       212 4.80905E-06 1.03216E-03 6.07638E-08
 -1       213-7.14216E-05 1.16432E-03-6.39399E-05
 -1       214 7.04173E-07 8.71707E-04 8.33524E-07
 -1       215-1.28777E-05 4.83085E-04 1.15473E-04
 -1       216-1.26773E-06 4.92502E-04 3.58586E-07
 -1       217 1.44500E-05 4.86448E-04-1.15521E-04
 -1       218-1.78061E-07 1.89031E-04 6.75165E-08
 -1       250-1.12175E-08 1.20380E-03-6.33411E-05
 -1       251-4.15163E-06 7.42261E-04-2.34295E-08
 -1       252 1.43900E-08 9.66130E-04-3.03949E-07
 -1       253 4.15259E-06 7.42292E-04-5.41483E-09
 -1       254 1.95737E-08 1.19264E-03 6.31628E-05
 -1       255-1.53936E-09 8.45314E-04-1.02871E-07
 -1       256-2.28237E-09 4.80926E-04-1.26986E-04
 -1       257 8.12163E-07 5.62601E-04-3.10100E-08
 -1       258 7.55511E-09 5.02976E-04 5.12448E-08
 -1       259-8.10105E-07 5.62606E-04-3.43073E-08
 -1       260 2.50504E-09 4.83618E-04 1.27122E-04
 -1       261-1.31962E-09 2.14083E-04-2.46095E-08
 -3
    1PSTEP                         5           5           1          
  100CL  105 1.25000E-02          81                     1    5           1
 -4  DISP        4    1
 -5  D1          1    2    1    0
 -5  D2          1    2    2    0
 -5  D3          1    2    3    0
 -5  ALL         1    2    0    0    1ALL
 -1         5 0.00000E+00 0.00000E+00 0.00000E+00
 -1         6 0.00000E+00 0.00000E+00 0.00000E+00
 -1         7 0.00000E+00 0.00000E+00 0.00000E+00
 -1         8 0.00000E+00 0.00000E+00 0.00000E+00
 -1        21 0.00000E+00 0.00000E+00 0.00000E+00
 -1        22 0.00000E+00 0.00000E+00 0.00000E+00
 -1        23 0.00000E+00 0.00000E+00 0.00000E+00
 -1        24 0.00000E+00 0.00000E+00 0.00000E+00
 -1        25 0.00000E+00 0.00000E+00 0.00000E+00
 -1        26 0.00000E+00 0.00000E+00 0.00000E+00
 -1        27 0.00000E+00 0.00000E+00 0.00000E+00
 -1        28 0.00000E+00 0.00000E+00 0.00000E+00
 -1        29 0.00000E+00 0.00000E+00 0.00000E+00
 -1        30 0.00000E+00 0.00000E+00 0.00000E+00
 -1        31 0.00000E+00 0.00000E+00 0.00000E+00
 -1        32 0.00000E+00 0.00000E+00 0.00000E+00
 -1        44 8.45071E-05-7.35901E-04 1.09471E-04
 -1        45 1.92398E-05-5.74378E-04 1.76368E-04
 -1        46-2.32662E-05-4.31237E-04 1.99318E-04
 -1        47 2.33410E-05-1.75060E-04 1.33053E-04
 -1        48-2.33808E-05-1.75076E-04 1.33109E-04
 -1        49 2.32249E-05-4.31232E-04 1.99393E-04
 -1        50-1.94853E-05-5.74379E-04 1.76430E-04
 -1        51-8.44757E-05-7.35957E-04 1.09416E-04
 -1        74-1.09102E-04-7.12609E-04-1.09071E-04
 -1        75-3.29640E-05-5.61651E-04-1.76455E-04
 -1        76 2.91057E-05-4.36599E-04-1.99523E-04
 -1        77-1.95607E-05-1.78677E-04-1.33105E-04
 -1        89 1.09120E-04-7.12542E-04-1.09115E-04
 -1        90 3.27259E-05-5.61656E-04-1.76396E-04
 -1        91-2.91531E-05-4.36599E-04-1.99449E-04
 -1        92 1.95219E-05-1.78663E-04-1.33053E-04
 -1        98 0.00000E+00 0.00000E+00 0.00000E+00
 -1        99 0.00000E+00 0.00000E+00 0.00000E+00
 -1       100 0.00000E+00 0.00000E+00 0.00000E+00
 -1       101 0.00000E+00 0.00000E+00 0.00000E+00
 -1       102 0.00000E+00 0.00000E+00 0.00000E+00
 -1       124 5.20427E-06-6.91841E-04 1.03830E-04
 -1       125-1.68161E-07-8.21009E-04 1.08788E-04
 -1       126-5.37304E-06-6.91796E-04 1.03697E-04
 -1       127-4.86540E-08-6.09531E-04 1.92356E-04
 -1       128 3.16096E-07-4.44407E-04 2.15514E-04
 -1       129-7.87935E-08-4.09761E-04 2.20518E-04
 -1       130-4.12113E-07-4.44411E-04 2.15513E-04
 -1       131-1.01660E-08-1.73781E-04 1.27873E-04
 -1       153-6.90124E-05-9.15445E-04 4.84448E-05
 -1       154-4.23891E-06-8.13061E-04-6.79768E-08
 -1       155 7.71160E-05-8.97191E-04-4.85150E-05
 -1       156 3.06224E-07-6.49777E-04 1.33911E-06
 -1       157 1.38150E-05-3.71048E-04 8.55660E-05
 -1       158 7.07590E-07-3.83328E-04 6.36885E-07
 -1       159-1.56365E-05-3.75074E-04-8.56547E-05
 -1       160-1.61551E-07-1.43070E-04 1.69193E-08
 -1       182-1.38121E-05-6.99732E-04-1.03634E-04
 -1       183-1.55402E-07-8.14638E-04-1.08858E-04
 -1       184 1.36494E-05-6.99685E-04-1.03508E-04
 -1       185-5.24526E-08-6.10517E-04-1.95857E-04
 -1       186 4.62825E-06-4.42751E-04-2.15388E-04
 -1       187-7.52532E-08-4.11015E-04-2.21501E-04
 -1       188-4.72374E-06-4.42752E-04-2.15386E-04
 -1       189-1.06429E-08-1.73437E-04-1.27792E-04
 -1       211-7.71645E-05-8.97158E-04-4.85452E-05
 -1       212 4.11532E-06-8.13073E-04-2.45267E-08
 -1       213 6.89682E-05-9.15486E-04 4.84202E-05
 -1       214-5.13839E-07-6.49773E-04 1.40496E-06
 -1       215 1.55752E-05-3.75076E-04-8.55759E-05
 -1       216-7.82222E-07-3.83331E-04 7.07757E-07
 -1       217-1.38730E-05-3.71046E-04 8.56434E-05
 -1       218 1.20594E-07-1.43069E-04 6.42000E-08
 -1       250-1.75388E-07-8.56737E-04 4.86657E-05
 -1       251-5.32929E-06-5.63320E-04-3.95594E-07
 -1       252-1.70018E-07-7.00728E-04-1.24875E-06
 -1       253 5.09415E-06-5.63313E-04-4.99488E-07
 -1       254-1.68084E-07-8.69525E-04-4.85752E-05
 -1       255-6.53112E-08-6.44366E-04 3.22305E-08
 -1       256-7.27807E-08-3.64825E-04 9.76142E-05
 -1       257 1.16392E-06-4.26235E-04 9.32881E-09
 -1       258-6.78916E-08-3.72225E-04 1.38416E-07
 -1       259-1.26824E-06-4.26233E-04-6.83469E-09
 -1       260-7.11659E-08-3.61939E-04-9.76162E-05
 -1       261-1.35378E-08-1.61906E-04 3.28962E-08
 -3
    1PSTEP                         6           6           1          
  100CL  106 1.50000E-02          81                     1    6           1
 -4  DISP        4    1
 -5  D1          1    2    1    0
 -5  D2          1    2    2    0
 -5  D3          1    2    3    0
 -5  ALL         1    2    0    0    1ALL
 -1         5 0.00000E+00 0.00000E+00 0.00000E+00
 -1         6 0.00000E+00 0.00000E+00 0.00000E+00
 -1         7 0.00000E+00 0.00000E+00 0.00000E+00
 -1         8 0.00000E+00 0.00000E+00 0.00000E+00
 -1        21 0.00000E+00 0.00000E+00 0.00000E+00
 -1        22 0.00000E+00 0.00000E+00 0.00000E+00
 -1        23 0.00000E+00 0.00000E+00 0.00000E+00
 -1        24 0.00000E+00 0.00000E+00 0.00000E+00
 -1        25 0.00000E+00 0.00000E+00 0.00000E+00
 -1        26 0.00000E+00 0.00000E+00 0.00000E+00
 -1        27 0.00000E+00 0.00000E+00 0.00000E+00
 -1        28 0.00000E+00 0.00000E+00 0.00000E+00
 -1        29 0.00000E+00 0.00000E+00 0.00000E+00
 -1        30 0.00000E+00 0.00000E+00 0.00000E+00
 -1        31 0.00000E+00 0.00000E+00 0.00000E+00
 -1        32 0.00000E+00 0.00000E+00 0.00000E+00
 -1        44-3.63312E-05 5.52972E-04-7.86705E-05
 -1        45-9.37139E-06 4.24217E-04-1.27416E-04
 -1        46 1.07204E-05 3.04946E-04-1.47626E-04
 -1        47-1.95174E-05 1.22538E-04-9.49863E-05