    1C
    1UUSER                                                              
    1UDATE              11.july.2018                                    
    1UTIME              16:21:17                                        
    1UHOST                                                              
    1UPGM               CalculiX                                        
    1UVERSION           Version 2.13                             
    1UCOMPILETIME       jue jun 14 00:40:39 CEST 2018                    
    1UDIR                                                               
    1UDBN                                                               
    1UMAT    1EL                                                        
    2C                           201                                     1
 -1         1 0.00000E+00 0.00000E+00 0.00000E+00
 -1         2 1.00000E+00 0.00000E+00 0.00000E+00
 -1         3 1.00000E+00 1.00000E+00 0.00000E+00
 -1         4 0.00000E+00 1.00000E+00 0.00000E+00
 -1         9 2.50000E-01 0.00000E+00 0.00000E+00
 -1        10 5.00000E-01 0.00000E+00 0.00000E+00
 -1        11 7.50000E-01 0.00000E+00 0.00000E+00
 -1        12 1.00000E+00 2.50000E-01 0.00000E+00
 -1        13 1.00000E+00 5.00000E-01 0.00000E+00
 -1        14 1.00000E+00 7.50000E-01 0.00000E+00
 -1        15 7.50000E-01 1.00000E+00 0.00000E+00
 -1        16 5.00000E-01 1.00000E+00 0.00000E+00
 -1        17 2.50000E-01 1.00000E+00 0.00000E+00
 -1        18 0.00000E+00 7.50000E-01 0.00000E+00
 -1        19 0.00000E+00 5.00000E-01 0.00000E+00
 -1        20 0.00000E+00 2.50000E-01 0.00000E+00
 -1        33 1.00000E+00 0.00000E+00 5.00000E-01
 -1        34 1.00000E+00 0.00000E+00 1.00000E+00
 -1        35 1.00000E+00 0.00000E+00 1.50000E+00
 -1        36 1.00000E+00 0.00000E+00 2.00000E+00
 -1        37 1.00000E+00 0.00000E+00 2.50000E+00
 -1        38 1.00000E+00 0.00000E+00 3.00000E+00
 -1        39 1.00000E+00 0.00000E+00 3.50000E+00
 -1        40 1.00000E+00 0.00000E+00 4.00000E+00
 -1        41 1.00000E+00 0.00000E+00 4.50000E+00
 -1        42 1.00000E+00 0.00000E+00 5.00000E+00
 -1        43 1.00000E+00 0.00000E+00 5.50000E+00
 -1        44 1.00000E+00 0.00000E+00 6.00000E+00
 -1        51 0.00000E+00 0.00000E+00 6.00000E+00
 -1        52 0.00000E+00 0.00000E+00 5.50000E+00
 -1        53 0.00000E+00 0.00000E+00 5.00000E+00
 -1        54 0.00000E+00 0.00000E+00 4.50000E+00
 -1        55 0.00000E+00 0.00000E+00 4.00000E+00
 -1        56 0.00000E+00 0.00000E+00 3.50000E+00
 -1        57 0.00000E+00 0.00000E+00 3.00000E+00
 -1        58 0.00000E+00 0.00000E+00 2.50000E+00
 -1        59 0.00000E+00 0.00000E+00 2.00000E+00
 -1        60 0.00000E+00 0.00000E+00 1.50000E+00
 -1        61 0.00000E+00 0.00000E+00 1.00000E+00
 -1        62 0.00000E+00 0.00000E+00 5.00000E-01
 -1        63 1.00000E+00 1.00000E+00 5.00000E-01
 -1        64 1.00000E+00 1.00000E+00 1.00000E+00
 -1        65 1.00000E+00 1.00000E+00 1.50000E+00
 -1        66 1.00000E+00 1.00000E+00 2.00000E+00
 -1        67 1.00000E+00 1.00000E+00 2.50000E+00
 -1        68 1.00000E+00 1.00000E+00 3.00000E+00
 -1        69 1.00000E+00 1.00000E+00 3.50000E+00
 -1        70 1.00000E+00 1.00000E+00 4.00000E+00
 -1        71 1.00000E+00 1.00000E+00 4.50000E+00
 -1        72 1.00000E+00 1.00000E+00 5.00000E+00
 -1        73 1.00000E+00 1.00000E+00 5.50000E+00
 -1        74 1.00000E+00 1.00000E+00 6.00000E+00
 -1        78 0.00000E+00 1.00000E+00 5.00000E-01
 -1        79 0.00000E+00 1.00000E+00 1.00000E+00
 -1        80 0.00000E+00 1.00000E+00 1.50000E+00
 -1        81 0.00000E+00 1.00000E+00 2.00000E+00
 -1        82 0.00000E+00 1.00000E+00 2.50000E+00
 -1        83 0.00000E+00 1.00000E+00 3.00000E+00
 -1        84 0.00000E+00 1.00000E+00 3.50000E+00
 -1        85 0.00000E+00 1.00000E+00 4.00000E+00
 -1        86 0.00000E+00 1.00000E+00 4.50000E+00
 -1        87 0.00000E+00 1.00000E+00 5.00000E+00
 -1        88 0.00000E+00 1.00000E+00 5.50000E+00
 -1        89 0.00000E+00 1.00000E+00 6.00000E+00
 -1        93 5.00000E-01 2.50000E-01 0.00000E+00
 -1        94 2.50000E-01 5.00000E-01 0.00000E+00
 -1        95 5.00000E-01 5.00000E-01 0.00000E+00
 -1        96 7.50000E-01 5.00000E-01 0.00000E+00
 -1        97 5.00000E-01 7.50000E-01 0.00000E+00
 -1       103 5.00000E-01 0.00000E+00 5.00000E-01
 -1       104 2.50000E-01 0.00000E+00 1.00000E+00
 -1       105 5.00000E-01 0.00000E+00 1.00000E+00
 -1       106 7.50000E-01 0.00000E+00 1.00000E+00
 -1       107 5.00000E-01 0.00000E+00 1.50000E+00
 -1       108 2.50000E-01 0.00000E+00 2.00000E+00
 -1       109 5.00000E-01 0.00000E+00 2.00000E+00
 -1       110 7.50000E-01 0.00000E+00 2.00000E+00
 -1       111 5.00000E-01 0.00000E+00 2.50000E+00
 -1       112 2.50000E-01 0.00000E+00 3.00000E+00
 -1       113 5.00000E-01 0.00000E+00 3.00000E+00
 -1       114 7.50000E-01 0.00000E+00 3.00000E+00
 -1       115 5.00000E-01 0.00000E+00 3.50000E+00
 -1       116 2.50000E-01 0.00000E+00 4.00000E+00
 -1       117 5.00000E-01 0.00000E+00 4.00000E+00
 -1       118 7.50000E-01 0.00000E+00 4.00000E+00
 -1       119 5.00000E-01 0.00000E+00 4.50000E+00
 -1       120 2.50000E-01 0.00000E+00 5.00000E+00
 -1       121 5.00000E-01 0.00000E+00 5.00000E+00
 -1       122 7.50000E-01 0.00000E+00 5.00000E+00
 -1       123 5.00000E-01 0.00000E+00 5.50000E+00
 -1       124 2.50000E-01 0.00000E+00 6.00000E+00
 -1       125 5.00000E-01 0.00000E+00 6.00000E+00
 -1       126 7.50000E-01 0.00000E+00 6.00000E+00
 -1       132 1.00000E+00 5.00000E-01 5.00000E-01
 -1       133 1.00000E+00 2.50000E-01 1.00000E+00
 -1       134 1.00000E+00 5.00000E-01 1.00000E+00
 -1       135 1.00000E+00 7.50000E-01 1.00000E+00
 -1       136 1.00000E+00 5.00000E-01 1.50000E+00
 -1       137 1.00000E+00 2.50000E-01 2.00000E+00
 -1       138 1.00000E+00 5.00000E-01 2.00000E+00
 -1       139 1.00000E+00 7.50000E-01 2.00000E+00
 -1       140 1.00000E+00 5.00000E-01 2.50000E+00
 -1       141 1.00000E+00 2.50000E-01 3.00000E+00
 -1       142 1.00000E+00 5.00000E-01 3.00000E+00
 -1       143 1.00000E+00 7.50000E-01 3.00000E+00
 -1       144 1.00000E+00 5.00000E-01 3.50000E+00
 -1       145 1.00000E+00 2.50000E-01 4.00000E+00
 -1       146 1.00000E+00 5.00000E-01 4.00000E+00
 -1       147 1.00000E+00 7.50000E-01 4.00000E+00
 -1       148 1.00000E+00 5.00000E-01 4.50000E+00
 -1       149 1.00000E+00 2.50000E-01 5.00000E+00
 -1       150 1.00000E+00 5.00000E-01 5.00000E+00
 -1       151 1.00000E+00 7.50000E-01 5.00000E+00
 -1       152 1.00000E+00 5.00000E-01 5.50000E+00
 -1       153 1.00000E+00 2.50000E-01 6.00000E+00
 -1       154 1.00000E+00 5.00000E-01 6.00000E+00
 -1       155 1.00000E+00 7.50000E-01 6.00000E+00
 -1       161 5.00000E-01 1.00000E+00 5.00000E-01
 -1       162 7.50000E-01 1.00000E+00 1.00000E+00
 -1       163 5.00000E-01 1.00000E+00 1.00000E+00
 -1       164 2.50000E-01 1.00000E+00 1.00000E+00
 -1       165 5.00000E-01 1.00000E+00 1.50000E+00
 -1       166 7.50000E-01 1.00000E+00 2.00000E+00
 -1       167 5.00000E-01 1.00000E+00 2.00000E+00
 -1       168 2.50000E-01 1.00000E+00 2.00000E+00
 -1       169 5.00000E-01 1.00000E+00 2.50000E+00
 -1       170 7.50000E-01 1.00000E+00 3.00000E+00
 -1       171 5.00000E-01 1.00000E+00 3.00000E+00
 -1       172 2.50000E-01 1.00000E+00 3.00000E+00
 -1       173 5.00000E-01 1.00000E+00 3.50000E+00
 -1       174 7.50000E-01 1.00000E+00 4.00000E+00
 -1       175 5.00000E-01 1.00000E+00 4.00000E+00
 -1       176 2.50000E-01 1.00000E+00 4.00000E+00
 -1       177 5.00000E-01 1.00000E+00 4.50000E+00
 -1       178 7.50000E-01 1.00000E+00 5.00000E+00
 -1       179 5.00000E-01 1.00000E+00 5.00000E+00
 -1       180 2.50000E-01 1.00000E+00 5.00000E+00
 -1       181 5.00000E-01 1.00000E+00 5.50000E+00
 -1       182 7.50000E-01 1.00000E+00 6.00000E+00
 -1       183 5.00000E-01 1.00000E+00 6.00000E+00
 -1       184 2.50000E-01 1.00000E+00 6.00000E+00
 -1       190 0.00000E+00 5.00000E-01 5.00000E-01
 -1       191 0.00000E+00 7.50000E-01 1.00000E+00
 -1       192 0.00000E+00 5.00000E-01 1.00000E+00
 -1       193 0.00000E+00 2.50000E-01 1.00000E+00
 -1       194 0.00000E+00 5.00000E-01 1.50000E+00
 -1       195 0.00000E+00 7.50000E-01 2.00000E+00
 -1       196 0.00000E+00 5.00000E-01 2.00000E+00
 -1       197 0.00000E+00 2.50000E-01 2.00000E+00
 -1       198 0.00000E+00 5.00000E-01 2.50000E+00
 -1       199 0.00000E+00 7.50000E-01 3.00000E+00
 -1       200 0.00000E+00 5.00000E-01 3.00000E+00
 -1       201 0.00000E+00 2.50000E-01 3.00000E+00
 -1       202 0.00000E+00 5.00000E-01 3.50000E+00
 -1       203 0.00000E+00 7.50000E-01 4.00000E+00
 -1       204 0.00000E+00 5.00000E-01 4.00000E+00
 -1       205 0.00000E+00 2.50000E-01 4.00000E+00
 -1       206 0.00000E+00 5.00000E-01 4.50000E+00
 -1       207 0.00000E+00 7.50000E-01 5.00000E+00
 -1       208 0.00000E+00 5.00000E-01 5.00000E+00
 -1       209 0.00000E+00 2.50000E-01 5.00000E+00
 -1       210 0.00000E+00 5.00000E-01 5.50000E+00
 -1       211 0.00000E+00 7.50000E-01 6.00000E+00
 -1       212 0.00000E+00 5.00000E-01 6.00000E+00
 -1       213 0.00000E+00 2.50000E-01 6.00000E+00
 -1       219 5.00000E-01 5.00000E-01 5.00000E-01
 -1       220 5.00000E-01 2.50000E-01 1.00000E+00
 -1       221 2.50000E-01 5.00000E-01 1.00000E+00
 -1       222 5.00000E-01 5.00000E-01 1.00000E+00
 -1       223 7.50000E-01 5.00000E-01 1.00000E+00
 -1       224 5.00000E-01 7.50000E-01 1.00000E+00
 -1       225 5.00000E-01 5.00000E-01 1.50000E+00
 -1       226 5.00000E-01 2.50000E-01 2.00000E+00
 -1       227 2.50000E-01 5.00000E-01 2.00000E+00
 -1       228 5.00000E-01 5.00000E-01 2.00000E+00
 -1       229 7.50000E-01 5.00000E-01 2.00000E+00
 -1       230 5.00000E-01 7.50000E-01 2.00000E+00
 -1       231 5.00000E-01 5.00000E-01 2.50000E+00
 -1       232 5.00000E-01 2.50000E-01 3.00000E+00
 -1       233 2.50000E-01 5.00000E-01 3.00000E+00
 -1       234 5.00000E-01 5.00000E-01 3.00000E+00
 -1       235 7.50000E-01 5.00000E-01 3.00000E+00
 -1       236 5.00000E-01 7.50000E-01 3.00000E+00
 -1       237 5.00000E-01 5.00000E-01 3.50000E+00
 -1       238 5.00000E-01 2.50000E-01 4.00000E+00
 -1       239 2.50000E-01 5.00000E-01 4.00000E+00
 -1       240 5.00000E-01 5.00000E-01 4.00000E+00
 -1       241 7.50000E-01 5.00000E-01 4.00000E+00
 -1       242 5.00000E-01 7.50000E-01 4.00000E+00
 -1       243 5.00000E-01 5.00000E-01 4.50000E+00
 -1       244 5.00000E-01 2.50000E-01 5.00000E+00
 -1       245 2.50000E-01 5.00000E-01 5.00000E+00
 -1       246 5.00000E-01 5.00000E-01 5.00000E+00
 -1       247 7.50000E-01 5.00000E-01 5.00000E+00
 -1       248 5.00000E-01 7.50000E-01 5.00000E+00
 -1       249 5.00000E-01 5.00000E-01 5.50000E+00
 -1       250 5.00000E-01 2.50000E-01 6.00000E+00
 -1       251 2.50000E-01 5.00000E-01 6.00000E+00
 -1       252 5.00000E-01 5.00000E-01 6.00000E+00
 -1       253 7.50000E-01 5.00000E-01 6.00000E+00
 -1       254 5.00000E-01 7.50000E-01 6.00000E+00
 -3
    3C                            24                                     1
 -1         1    4    0    1
 -2         1        10        95        19        61       105       222       192         9        93
 -2        94        20        62       103       219       190       104       220       221       193
 -1         2    4    0    1
 -2        10         2        13        95       105        34       134       222        11        12
 -2        96        93       103        33       132       219       106       133       223       220
 -1         3    4    0    1
 -2        19        95        16         4       192       222       163        79        94        97
 -2        17        18       190       219       161        78       221       224       164       191
 -1         4    4    0    1
 -2        95        13         3        16       222       134        64       163        96        14
 -2        15        97       219       132        63       161       223       135       162       224
 -1         5    4    0    1
 -2        61       105       222       192        59       109       228       196       104       220
 -2       221       193        60       107       225       194       108       226       227       197
 -1         6    4    0    1
 -2       105        34       134       222       109        36       138       228       106       133
 -2       223       220       107        35       136       225       110       137       229       226
 -1         7    4    0    1
 -2       192       222       163        79       196       228       167        81       221       224
 -2       164       191       194       225       165        80       227       230       168       195
 -1         8    4    0    1
 -2       222       134        64       163       228       138        66       167       223       135
 -2       162       224       225       136        65       165       229       139       166       230
 -1         9    4    0    1
 -2        59       109       228       196        57       113       234       200       108       226
 -2       227       197        58       111       231       198       112       232       233       201
 -1        10    4    0    1
 -2       109        36       138       228       113        38       142       234       110       137
 -2       229       226       111        37       140       231       114       141       235       232
 -1        11    4    0    1
 -2       196       228       167        81       200       234       171        83       227       230
 -2       168       195       198       231       169        82       233       236       172       199
 -1        12    4    0    1
 -2       228       138        66       167       234       142        68       171       229       139
 -2       166       230       231       140        67       169       235       143       170       236
 -1        13    4    0    1
 -2        57       113       234       200        55       117       240       204       112       232
 -2       233       201        56       115       237       202       116       238       239       205
 -1        14    4    0    1
 -2       113        38       142       234       117        40       146       240       114       141
 -2       235       232       115        39       144       237       118       145       241       238
 -1        15    4    0    1
 -2       200       234       171        83       204       240       175        85       233       236
 -2       172       199       202       237       173        84       239       242       176       203
 -1        16    4    0    1
 -2       234       142        68       171       240       146        70       175       235       143
 -2       170       236       237       144        69       173       241       147       174       242
 -1        17    4    0    1
 -2        55       117       240       204        53       121       246       208       116       238
 -2       239       205        54       119       243       206       120       244       245       209
 -1        18    4    0    1
 -2       117        40       146       240       121        42       150       246       118       145
 -2       241       238       119        41       148       243       122       149       247       244
 -1        19    4    0    1
 -2       204       240       175        85       208       246       179        87       239       242
 -2       176       203       206       243       177        86       245       248       180       207
 -1        20    4    0    1
 -2       240       146        70       175       246       150        72       179       241       147
 -2       174       242       243       148        71       177       247       151       178       248
 -1        21    4    0    1
 -2        53       121       246       208        51       125       252       212       120       244
 -2       245       209        52       123       249       210       124       250       251       213
 -1        22    4    0    1
 -2       121        42       150       246       125        44       154       252       122       149
 -2       247       244       123        43       152       249       126       153       253       250
 -1        23    4    0    1
 -2       208       246       179        87       212       252       183        89       245       248
 -2       180       207       210       249       181        88       251       254       184       211
 -1        24    4    0    1
 -2       246       150        72       179       252       154        74       183       247       151
 -2       178       248       249       152        73       181       253       155       182       254
 -3
    1PSTEP                         1           1           1          
  100CL  101 2.50000E-03         201                     1    1           1
 -4  DISP        4    1
 -5  D1          1    2    1    0
 -5  D2          1    2    2    0
 -5  D3          1    2    3    0
 -5  ALL         1    2    0    0    1ALL
 -1         1 0.00000E+00 0.00000E+00 0.00000E+00
 -1         2 0.00000E+00 0.00000E+00 0.00000E+00
 -1         3 0.00000E+00 0.00000E+00 0.00000E+00
 -1         4 0.00000E+00 0.00000E+00 0.00000E+00
 -1         9 0.00000E+00 0.00000E+00 0.00000E+00
 -1        10 0.00000E+00 0.00000E+00 0.00000E+00
 -1        11 0.00000E+00 0.00000E+00 0.00000E+00
 -1        12 0.00000E+00 0.00000E+00 0.00000E+00
 -1        13 0.00000E+00 0.00000E+00 0.00000E+00
 -1        14 0.00000E+00 0.00000E+00 0.00000E+00
 -1        15 0.00000E+00 0.00000E+00 0.00000E+00
 -1        16 0.00000E+00 0.00000E+00 0.00000E+00
 -1        17 0.00000E+00 0.00000E+00 0.00000E+00
 -1        18 0.00000E+00 0.00000E+00 0.00000E+00
 -1        19 0.00000E+00 0.00000E+00 0.00000E+00
 -1        20 0.00000E+00 0.00000E+00 0.00000E+00
 -1        33 7.61699E-05-1.85188E-04-2.43982E-04
 -1        34 3.74805E-05-5.74379E-04-4.47300E-04
 -1        35 3.08093E-05-1.15572E-03-5.77732E-04
 -1        36 9.89647E-06-1.82194E-03-6.47204E-04
 -1        37-5.57804E-06-2.51508E-03-6.56745E-04
 -1        38-2.48971E-05-3.21563E-03-6.27126E-04
 -1        39-5.09690E-05-3.81037E-03-4.61504E-04
 -1        40-5.23767E-05-4.23071E-03-2.60646E-04
 -1        41-4.68875E-05-4.27101E-03-9.03326E-05
 -1        42-8.63165E-05-4.51458E-03-2.14267E-04
 -1        43 8.51215E-05-4.13680E-03 1.16656E-04
 -1        44-1.22677E-04-4.11822E-03 5.34455E-04
 -1        51 1.22933E-04-4.11860E-03 5.34447E-04
 -1        52-8.55179E-05-4.13683E-03 1.16685E-04
 -1        53 8.60147E-05-4.51464E-03-2.14129E-04
 -1        54 4.63045E-05-4.27099E-03-9.02994E-05
 -1        55 5.19042E-05-4.23069E-03-2.60656E-04
 -1        56 5.04730E-05-3.81037E-03-4.61556E-04
 -1        57 2.45058E-05-3.21563E-03-6.27188E-04
 -1        58 5.23544E-06-2.51508E-03-6.56825E-04
 -1        59-1.01316E-05-1.82194E-03-6.47285E-04
 -1        60-3.09688E-05-1.15572E-03-5.77808E-04
 -1        61-3.75555E-05-5.74384E-04-4.47359E-04
 -1        62-7.61965E-05-1.85199E-04-2.44015E-04
 -1        63-7.44177E-05-1.82723E-04 2.38950E-04
 -1        64-3.72442E-05-5.73655E-04 4.36520E-04
 -1        65-2.77228E-05-1.15476E-03 5.62557E-04
 -1        66-1.00332E-05-1.83084E-03 6.26899E-04
 -1        67 5.77906E-06-2.50195E-03 6.31798E-04
 -1        68 1.64892E-05-3.21859E-03 5.90431E-04
 -1        69 7.06604E-05-3.82159E-03 4.22264E-04
 -1        70 7.99744E-05-4.35444E-03 2.22613E-04
 -1        71-1.35922E-05-4.11027E-03 4.46130E-05
 -1        72-1.25678E-04-4.17269E-03 1.16296E-04
 -1        73 2.44790E-04-4.67219E-03-2.36407E-04
 -1        74 4.11240E-04-5.35357E-03-6.06719E-04
 -1        78 7.43909E-05-1.82712E-04 2.38916E-04
 -1        79 3.71692E-05-5.73651E-04 4.36462E-04
 -1        80 2.75624E-05-1.15476E-03 5.62481E-04
 -1        81 9.79837E-06-1.83084E-03 6.26819E-04
 -1        82-6.12332E-06-2.50195E-03 6.31718E-04
 -1        83-1.68794E-05-3.21860E-03 5.90371E-04
 -1        84-7.11589E-05-3.82159E-03 4.22210E-04
 -1        85-8.04424E-05-4.35446E-03 2.22602E-04
 -1        86 1.30021E-05-4.11029E-03 4.46484E-05
 -1        87 1.25386E-04-4.17265E-03 1.16453E-04
 -1        88-2.45194E-04-4.67215E-03-2.36397E-04
 -1        89-4.10968E-04-5.35322E-03-6.06742E-04
 -1        93 0.00000E+00 0.00000E+00 0.00000E+00
 -1        94 0.00000E+00 0.00000E+00 0.00000E+00
 -1        95 0.00000E+00 0.00000E+00 0.00000E+00
 -1        96 0.00000E+00 0.00000E+00 0.00000E+00
 -1        97 0.00000E+00 0.00000E+00 0.00000E+00
 -1       103-9.65680E-09-2.16649E-04-2.39477E-04
 -1       104-1.89068E-05-5.97225E-04-4.54090E-04
 -1       105-4.06016E-08-5.99685E-04-4.57078E-04
 -1       106 1.88300E-05-5.97222E-04-4.54062E-04
 -1       107-7.59811E-08-1.16845E-03-5.81606E-04
 -1       108-3.55629E-06-1.82362E-03-6.51460E-04
 -1       109-1.26914E-07-1.83633E-03-6.49491E-04
 -1       110 3.31129E-06-1.82362E-03-6.51423E-04
 -1       111-1.64822E-07-2.50557E-03-6.60933E-04
 -1       112 6.01365E-06-3.24546E-03-6.27191E-04
 -1       113-2.20913E-07-3.23426E-03-6.28030E-04
 -1       114-6.42932E-06-3.24546E-03-6.27156E-04
 -1       115-2.35971E-07-3.76666E-03-4.77931E-04
 -1       116 4.88799E-05-4.20579E-03-2.50823E-04
 -1       117-2.91721E-07-4.37020E-03-2.18429E-04
 -1       118-4.94138E-05-4.20579E-03-2.50840E-04
 -1       119-2.46992E-07-4.24767E-03-9.01093E-05
 -1       120-3.62663E-05-4.70539E-03-1.55392E-04
 -1       121-3.04863E-07-4.50017E-03-1.53610E-04
 -1       122 3.58214E-05-4.70538E-03-1.55373E-04
 -1       123-1.44047E-07-4.19187E-03-8.17635E-05
 -1       124 3.23538E-04-3.54657E-03 5.12270E-04
 -1       125-2.31625E-07-4.37113E-03 5.36933E-04
 -1       126-3.23675E-04-3.54636E-03 5.11951E-04
 -1       132 1.02546E-06-1.41316E-04-2.36815E-06
 -1       133 1.93215E-05-5.58890E-04-2.13032E-04
 -1       134 1.24428E-06-5.63950E-04-4.28180E-06
 -1       135-1.83090E-05-5.59072E-04 2.03045E-04
 -1       136-2.42547E-07-1.13546E-03-8.14069E-06
 -1       137 6.15533E-06-1.81804E-03-3.22745E-04
 -1       138 6.82819E-07-1.80582E-03-1.06298E-05
 -1       139-4.68980E-06-1.82031E-03 3.02916E-04
 -1       140 2.11097E-06-2.53538E-03-1.36044E-05
 -1       141-1.32854E-05-3.19160E-03-2.95188E-04
 -1       142 7.54414E-06-3.19805E-03-8.17432E-06
 -1       143 1.39441E-05-3.20145E-03 2.65657E-04
 -1       144-1.23180E-05-3.84205E-03-1.85551E-05
 -1       145-2.09845E-05-4.24694E-03-1.69078E-04
 -1       146-1.87450E-05-4.10462E-03-3.48784E-05
 -1       147 1.82360E-05-4.27834E-03 1.22637E-04
 -1       148 3.65934E-05-4.41662E-03-3.44260E-05
 -1       149-6.34800E-05-4.05962E-03-7.00584E-05
 -1       150 1.18844E-04-4.08746E-03-6.95096E-06
 -1       151 5.21252E-05-3.97932E-03 1.19329E-06
 -1       152-1.73743E-04-4.48886E-03 1.12658E-05
 -1       153 1.43584E-04-4.31480E-03 2.22618E-04
 -1       154-1.77972E-04-2.68910E-03-3.14286E-05
 -1       155-1.19859E-04-4.61513E-03-2.91858E-04
 -1       161-9.72172E-09-2.14892E-04 2.34031E-04
 -1       162-1.85017E-05-5.96225E-04 4.44098E-04
 -1       163-4.09258E-08-5.96169E-04 4.46520E-04
 -1       164 1.84246E-05-5.96223E-04 4.44071E-04
 -1       165-7.61366E-08-1.16845E-03 5.66649E-04
 -1       166-4.59892E-06-1.81995E-03 6.30763E-04
 -1       167-1.27680E-07-1.83009E-03 6.33180E-04
 -1       168 4.35326E-06-1.81995E-03 6.30725E-04
 -1       169-1.64973E-07-2.50706E-03 6.30636E-04
 -1       170 6.72616E-06-3.24445E-03 5.97228E-04
 -1       171-2.22519E-07-3.18984E-03 5.90457E-04
 -1       172-7.14281E-06-3.24446E-03 5.97194E-04
 -1       173-2.35946E-07-3.79564E-03 4.41586E-04
 -1       174 4.41039E-05-4.12423E-03 2.02963E-04
 -1       175-2.94773E-07-4.24755E-03 2.00023E-04
 -1       176-4.46388E-05-4.12424E-03 2.02982E-04
 -1       177-2.45970E-07-4.18973E-03 2.35798E-05
 -1       178-7.60574E-05-4.83261E-03 9.23466E-05
 -1       179-3.12683E-07-4.24642E-03 5.35537E-05
 -1       180 7.56095E-05-4.83260E-03 9.23299E-05
 -1       181-1.42886E-07-4.46685E-03-3.29528E-05
 -1       182 2.25248E-04-3.01503E-03-5.73665E-04
 -1       183-2.56772E-07-5.39843E-03-5.80967E-04
 -1       184-2.25401E-04-3.01483E-03-5.73324E-04
 -1       190-1.05503E-06-1.41316E-04-2.40035E-06
 -1       191 1.82280E-05-5.59070E-04 2.02985E-04
 -1       192-1.32871E-06-5.63950E-04-4.34309E-06
 -1       193-1.94026E-05-5.58892E-04-2.13092E-04
 -1       194 8.55276E-08-1.13546E-03-8.21570E-06
 -1       195 4.44640E-06-1.82031E-03 3.02833E-04
 -1       196-9.35921E-07-1.80582E-03-1.07129E-05
 -1       197-6.39881E-06-1.81804E-03-3.22829E-04
 -1       198-2.43905E-06-2.53538E-03-1.36851E-05
 -1       199-1.43563E-05-3.20145E-03 2.65593E-04
 -1       200-7.97585E-06-3.19805E-03-8.25015E-06
 -1       201 1.28726E-05-3.19160E-03-2.95252E-04
 -1       202 1.18472E-05-3.84205E-03-1.85932E-05
 -1       203-1.87480E-05-4.27835E-03 1.22613E-04
 -1       204 1.81775E-05-4.10462E-03-3.48866E-05
 -1       205 2.04709E-05-4.24693E-03-1.69103E-04
 -1       206-3.70742E-05-4.41663E-03-3.44165E-05
 -1       207-5.25649E-05-3.97930E-03 1.30801E-06
 -1       208-1.19414E-04-4.08745E-03-6.97177E-06
 -1       209 6.30339E-05-4.05965E-03-6.99452E-05
 -1       210 1.73404E-04-4.48886E-03 1.15150E-05
 -1       211 1.19676E-04-4.61495E-03-2.91808E-04
 -1       212 1.77346E-04-2.68907E-03-3.10438E-05
 -1       213-1.43769E-04-4.31497E-03 2.22642E-04
 -1       219-1.22400E-08-1.71867E-04-2.12137E-06
 -1       220-4.05272E-08-5.82833E-04-2.19810E-04
 -1       221-6.36901E-07-5.84165E-04-5.36366E-06
 -1       222-3.92767E-08-5.86535E-04-5.61956E-06
 -1       223 5.56529E-07-5.84165E-04-5.33468E-06
 -1       224-4.06886E-08-5.80852E-04 2.09512E-04
 -1       225-7.92183E-08-1.14909E-03-7.55015E-06
 -1       226-1.23181E-07-1.82743E-03-3.27195E-04
 -1       227-7.03843E-07-1.80967E-03-1.02099E-05
 -1       228-1.19499E-07-1.81295E-03-1.23781E-05
 -1       229 4.58226E-07-1.80967E-03-1.01689E-05
 -1       230-1.23570E-07-1.82493E-03 3.04838E-04
 -1       231-1.69915E-07-2.53174E-03-1.11456E-05
 -1       232-2.10195E-07-3.20863E-03-3.01576E-04
 -1       233-3.18151E-06-3.19735E-03-1.85869E-05
 -1       234-2.00225E-07-3.20131E-03-2.07487E-05
 -1       235 2.76333E-06-3.19735E-03-1.85532E-05
 -1       236-2.10970E-07-3.18386E-03 2.68596E-04
 -1       237-2.48316E-07-3.80172E-03-1.36579E-05
 -1       238-2.68092E-07-4.32053E-03-1.50720E-04
 -1       239 7.31930E-06-4.11759E-03-2.15005E-05
 -1       240-2.44761E-07-4.15518E-03-2.87299E-05
 -1       241-7.84473E-06-4.11759E-03-2.14857E-05
 -1       242-2.69709E-07-4.26535E-03 9.84306E-05
 -1       243-2.77154E-07-4.36610E-03-3.19421E-05
 -1       244-2.48381E-07-4.25551E-03-3.32476E-05
 -1       245-4.38711E-05-4.30935E-03-3.78931E-05
 -1       246-1.99128E-07-4.44237E-03-3.02311E-05
 -1       247 4.33723E-05-4.30936E-03-3.79345E-05
 -1       248-2.52086E-07-4.13318E-03-1.19999E-05
 -1       249-2.29298E-07-4.16159E-03-1.86441E-05
 -1       250-1.92045E-07-4.94764E-03 2.07731E-04
 -1       251 3.10109E-05-3.09394E-03-1.31427E-05
 -1       252-1.29256E-07-3.86000E-03-1.07717E-05
 -1       253-3.14354E-05-3.09395E-03-1.31507E-05
 -1       254-2.06480E-07-5.42541E-03-3.23739E-04
 -3
    1PSTEP                         2           2           1          
  100CL  102 5.00000E-03         201                     1    2           1
 -4  DISP        4    1
 -5  D1          1    2    1    0
 -5  D2          1    2    2    0
 -5  D3          1    2    3    0
 -5  ALL         1    2    0    0    1ALL
 -1         1 0.00000E+00 0.00000E+00 0.00000E+00
 -1         2 0.00000E+00 0.00000E+00 0.00000E+00
 -1         3 0.00000E+00 0.00000E+00 0.00000E+00
 -1         4 0.00000E+00 0.00000E+00 0.00000E+00
 -1         9 0.00000E+00 0.00000E+00 0.00000E+00
 -1        10 0.00000E+00 0.00000E+00 0.00000E+00
 -1        11 0.00000E+00 0.00000E+00 0.00000E+00
 -1        12 0.00000E+00 0.00000E+00 0.00000E+00
 -1        13 0.00000E+00 0.00000E+00 0.00000E+00
 -1        14 0.00000E+00 0.00000E+00 0.00000E+00
 -1        15 0.00000E+00 0.00000E+00 0.00000E+00
 -1        16 0.00000E+00 0.00000E+00 0.00000E+00
 -1        17 0.00000E+00 0.00000E+00 0.00000E+00
 -1        18 0.00000E+00 0.00000E+00 0.00000E+00
 -1        19 0.00000E+00 0.00000E+00 0.00000E+00
 -1        20 0.00000E+00 0.00000E+00 0.00000E+00
 -1        33-7.81219E-06 2.13625E-05 2.60054E-05
 -1        34-3.40992E-06 6.56191E-05 4.59232E-05
 -1        35-2.75369E-06 1.30782E-04 5.94234E-05
 -1        36-1.76649E-06 2.03859E-04 6.38484E-05
 -1        37 4.08641E-06 2.84662E-04 6.11985E-05
 -1        38 8.14954E-06 3.63489E-04 4.31468E-05
 -1        39 4.53265E-06 4.04700E-04 3.11169E-05
 -1        40-8.61804E-06 4.49842E-04-1.37400E-07
 -1        41 2.97448E-05 4.78583E-04-1.61993E-05
 -1        42 2.95679E-05 4.41418E-04-1.09458E-04
 -1        43-1.83684E-05 3.42986E-04-8.29008E-05
 -1        44-3.49395E-04 1.75977E-04-7.27352E-05
 -1        51 3.49267E-04 1.76075E-04-7.26515E-05
 -1        52 1.84880E-05 3.43002E-04-8.28638E-05
 -1        53-2.95401E-05 4.41437E-04-1.09517E-04
 -1        54-2.95746E-05 4.78579E-04-1.62130E-05
 -1        55 8.72862E-06 4.49836E-04-1.30686E-07
 -1        56-4.40190E-06 4.04701E-04 3.11349E-05
 -1        57-8.05623E-06 3.63489E-04 4.31616E-05
 -1        58-3.99748E-06 2.84663E-04 6.12192E-05
 -1        59 1.82382E-06 2.03859E-04 6.38692E-05
 -1        60 2.79432E-06 1.30784E-04 5.94432E-05
 -1        61 3.42787E-06 6.56206E-05 4.59379E-05
 -1        62 7.81893E-06 2.13653E-05 2.60139E-05
 -1        63 8.87501E-06 2.29110E-05-2.90708E-05
 -1        64 3.57330E-06 6.61201E-05-5.25092E-05
 -1        65 4.85658E-06 1.31211E-04-6.86192E-05
 -1        66 1.93739E-06 1.97980E-04-7.60507E-05
 -1        67-3.96884E-06 2.93342E-04-7.62677E-05
 -1        68-1.36850E-05 3.62950E-04-6.57262E-05
 -1        69 9.34778E-06 3.95580E-04-5.48991E-05
 -1        70 2.77374E-05 3.67906E-04-2.19344E-05
 -1        71-7.10062E-05 5.86525E-04-1.06790E-05
 -1        72-1.73369E-04 6.75362E-04 4.66903E-05
 -1        73 2.43224E-04-2.12678E-05 7.15387E-06
 -1        74 5.51863E-04-6.62689E-04 3.14281E-05
 -1        78-8.86784E-06 2.29085E-05-2.90622E-05