
 displacements (vx,vy,vz) for set NALL and time  0.2500000E-02

         5  0.000000E+00  0.000000E+00  0.000000E+00
         6  0.000000E+00  0.000000E+00  0.000000E+00
         7  0.000000E+00  0.000000E+00  0.000000E+00
         8  0.000000E+00  0.000000E+00  0.000000E+00
        21  0.000000E+00  0.000000E+00  0.000000E+00
        22  0.000000E+00  0.000000E+00  0.000000E+00
        23  0.000000E+00  0.000000E+00  0.000000E+00
        24  0.000000E+00  0.000000E+00  0.000000E+00
        25  0.000000E+00  0.000000E+00  0.000000E+00
        26  0.000000E+00  0.000000E+00  0.000000E+00
        27  0.000000E+00  0.000000E+00  0.000000E+00
        28  0.000000E+00  0.000000E+00  0.000000E+00
        29  0.000000E+00  0.000000E+00  0.000000E+00
        30  0.000000E+00  0.000000E+00  0.000000E+00
        31  0.000000E+00  0.000000E+00  0.000000E+00
        32  0.000000E+00  0.000000E+00  0.000000E+00
        44 -1.233646E-04 -4.117471E-03  5.333051E-04
        45  8.078253E-05 -3.037487E-03  9.183636E-04
        46 -6.561166E-05 -2.170071E-03  1.158205E-03
        47  1.607367E-04 -7.949046E-04  6.457201E-04
        48 -1.606738E-04 -7.948879E-04  6.456448E-04
        49  6.543056E-05 -2.170171E-03  1.158160E-03
        50 -8.049043E-05 -3.037438E-03  9.185030E-04
        51  1.222423E-04 -4.117444E-03  5.341339E-04
        74  4.108285E-04 -5.355730E-03 -6.081089E-04
        75  2.240732E-04 -3.564199E-03 -9.244408E-04
        76 -1.359262E-04 -1.919324E-03 -1.160617E-03
        77 -2.574964E-04 -5.998851E-04 -6.666430E-04
        89 -4.119301E-04 -5.355775E-03 -6.072981E-04
        90 -2.237944E-04 -3.564235E-03 -9.242978E-04
        91  1.357556E-04 -1.919234E-03 -1.160657E-03
        92  2.575576E-04 -5.999003E-04 -6.667110E-04
        98  0.000000E+00  0.000000E+00  0.000000E+00
        99  0.000000E+00  0.000000E+00  0.000000E+00
       100  0.000000E+00  0.000000E+00  0.000000E+00
       101  0.000000E+00  0.000000E+00  0.000000E+00
       102  0.000000E+00  0.000000E+00  0.000000E+00
       124  3.230942E-04 -3.545534E-03  5.115788E-04
       125  1.242932E-07 -4.370525E-03  5.371362E-04
       126 -3.234457E-04 -3.545546E-03  5.117314E-04
       127 -8.870787E-08 -3.081972E-03  1.129005E-03
       128 -3.783787E-05 -2.342734E-03  1.139842E-03
       129  1.163778E-07 -2.149779E-03  1.122329E-03
       130  3.785197E-05 -2.342694E-03  1.139734E-03
       131  1.580816E-09 -8.719327E-04  6.634095E-04
       153  1.434179E-04 -4.313387E-03  2.221061E-04
       154 -1.776618E-04 -2.687626E-03 -3.127396E-05
       155 -1.205468E-04 -4.615098E-03 -2.921793E-04
       156 -1.629524E-04 -3.362388E-03 -8.748540E-05
       157 -4.476419E-05 -1.759801E-03  4.725130E-04
       158  1.229966E-04 -1.827333E-03 -4.058640E-05
       159  7.789993E-05 -1.728075E-03 -5.014902E-04
       160  5.498087E-05 -7.926748E-04  7.222654E-06
       182  2.250043E-04 -3.014568E-03 -5.736196E-04
       183  1.020791E-07 -5.397702E-03 -5.800949E-04
       184 -2.253676E-04 -3.014585E-03 -5.737524E-04
       185 -8.130455E-08 -3.458620E-03 -1.093581E-03
       186 -7.417539E-05 -2.635223E-03 -1.190583E-03
       187  1.103253E-07 -2.192675E-03 -1.160398E-03
       188  7.418864E-05 -2.635188E-03 -1.190478E-03
       189  2.414711E-09 -8.530867E-04 -6.774689E-04
       211  1.201672E-04 -4.615143E-03 -2.919122E-04
       212  1.779934E-04 -2.687604E-03 -3.164105E-05
       213 -1.438029E-04 -4.313330E-03  2.223546E-04
       214  1.628868E-04 -3.362395E-03 -8.750884E-05
       215 -7.791885E-05 -1.728024E-03 -5.015060E-04
       216 -1.228467E-04 -1.827328E-03 -4.056118E-05
       217  4.473928E-05 -1.759852E-03  4.724997E-04
       218 -5.497303E-05 -7.926756E-04  7.221926E-06
       250  6.661612E-08 -4.947576E-03  2.078870E-04
       251  3.143683E-05 -3.093453E-03 -1.308096E-05
       252  1.636791E-09 -3.859919E-03 -1.071241E-05
       253 -3.130633E-05 -3.093466E-03 -1.304293E-05
       254  5.383426E-08 -5.425250E-03 -3.234544E-04
       255  2.474100E-08 -3.047597E-03 -4.294753E-05
       256  6.574657E-08 -1.947923E-03  4.708516E-04
       257 -5.413245E-05 -2.072845E-03 -1.785592E-05
       258  1.449582E-08 -2.200525E-03 -2.212337E-05
       259  5.422850E-05 -2.072847E-03 -1.783335E-05
       260  6.305243E-08 -1.970149E-03 -5.023880E-04
       261  1.422143E-08 -8.569924E-04 -3.142143E-06

 forces (fx,fy,fz) for set NALL and time  0.2500000E-02

         5  3.527877E+00 -6.065904E+00 -1.145610E+00
         6 -3.525822E+00 -6.067697E+00 -1.143884E+00
         7  5.186772E+00  1.069472E+00  1.354825E+00
         8 -5.184834E+00  1.067795E+00  1.353286E+00
        21 -5.558297E+00  7.112158E+00 -2.133312E+01
        22 -1.305009E-03 -1.373789E+01 -1.862764E-01
        23  5.558623E+00  7.111572E+00 -2.133591E+01
        24 -6.021659E+00  2.251185E+01 -1.263925E+01
        25  1.370318E+00 -1.680453E+01 -6.162041E-01
        26  2.472275E+00  1.749618E+01  1.301505E+01
        27 -4.209672E+00 -9.585915E-01  2.097668E+01
        28 -1.235815E-03 -2.788387E+00  1.581659E+00
        29  4.209968E+00 -9.590245E-01  2.097937E+01
        30 -2.470698E+00  1.749774E+01  1.301457E+01
        31 -1.371868E+00 -1.680459E+01 -6.160662E-01
        32  6.023394E+00  2.251032E+01 -1.263965E+01
        44  6.113139E+00  6.963820E+01  1.843482E+00
        45 -7.131571E-06 -6.080375E-01  1.525633E-01
        46  5.456712E-06  1.541472E+00 -4.634097E-01
        47 -1.922264E-06 -1.167011E+00  5.403037E-01
        48  2.099877E-06 -1.167009E+00  5.403043E-01
        49 -4.886157E-06  1.541473E+00 -4.634099E-01
        50  5.313927E-06 -6.080398E-01  1.525629E-01
        51 -6.118324E+00  6.963496E+01  1.850551E+00
        74 -1.418635E+01  2.347344E+01 -1.100051E+00
        75  6.397468E-07 -6.081229E-01 -1.525355E-01
        76 -1.639509E-06  1.541534E+00  4.634017E-01
        77  4.025417E-06 -1.167023E+00 -5.403000E-01
        89  1.418146E+01  2.347640E+01 -1.093738E+00
        90 -3.462103E-06 -6.081193E-01 -1.525354E-01
        91  2.121081E-06  1.541533E+00  4.634018E-01
        92 -3.441434E-06 -1.167026E+00 -5.402999E-01
        98 -2.319937E-03  4.775580E+01 -2.024382E+01
        99 -1.154269E-01 -8.954845E+00  9.193519E-01
       100  1.141602E-03 -2.949259E+01 -6.009591E-01
       101  1.149314E-01 -8.954611E+00  9.186336E-01
       102 -2.084522E-03  4.463065E+01  1.950198E+01
       124  3.466381E+01  2.109310E+01 -8.793404E-01
       125  4.149340E-04  1.409266E+02  3.833204E+00
       126 -3.466167E+01  2.109126E+01 -8.682457E-01
       127  4.398403E-07 -1.216076E+00  3.051175E-01
       128  4.564893E-06 -2.615777E+00  9.358648E-01
       129 -1.977913E-07  3.082945E+00 -9.268164E-01
       130 -5.024375E-06 -2.615776E+00  9.358639E-01
       131  5.295558E-07 -2.334020E+00  1.080606E+00
       153  1.875047E+01 -1.710408E+02 -2.954900E+00
       154 -5.887469E+00  1.344219E+02  7.735738E-01
       155  4.121257E+00 -1.378977E+02  1.465280E+00
       156 -1.170886E-05 -1.216152E+00 -2.477553E-05
       157 -7.614929E-06 -2.615785E+00  7.018890E-01
       158  5.803848E-06  3.083005E+00  1.158900E-05
       159 -1.368361E-07 -2.615847E+00 -7.018919E-01
       160 -1.213643E-06 -2.334038E+00 -3.363866E-06
       182  2.207136E+01  8.202333E+01  4.047221E-01
       183  3.186362E-04  6.324309E+01 -1.206736E+00
       184 -2.206938E+01  8.202152E+01  3.946492E-01
       185  1.291349E-06 -9.242572E+00 -3.050651E-01
       186  2.524822E-06 -1.064218E+01 -9.358383E-01
       187 -4.799294E-07 -4.943244E+00  9.268046E-01
       188 -2.882396E-06 -1.064218E+01 -9.358380E-01
       189  4.008528E-07 -1.036037E+01 -1.080595E+00
       211 -4.125000E+00 -1.379007E+02  1.467239E+00
       212  5.891198E+00  1.344220E+02  7.712404E-01
       213 -1.875420E+01 -1.710377E+02 -2.953934E+00
       214  9.283641E-06 -1.216153E+00 -2.296661E-05
       215 -1.522458E-06 -2.615845E+00 -7.018922E-01
       216 -4.644251E-06  3.083005E+00  1.075226E-05
       217  6.244222E-06 -2.615786E+00  7.018892E-01
       218  6.028125E-07 -2.334037E+00 -4.638857E-06
       250  3.560058E-03 -3.658330E+02 -7.187598E+00
       251  5.046833E+00  1.034518E+02  6.218361E-01
       252 -1.598898E-04  2.561322E+02  2.782245E+00
       253 -5.044393E+00  1.034513E+02  6.274349E-01
       254  3.040366E-03 -3.362440E+02  2.944177E-01
       255  3.291443E-06 -2.432312E+00 -6.070307E-05
       256  8.448300E-07 -5.231570E+00  1.403768E+00
       257  7.245934E-06 -5.231631E+00 -2.666713E-05
       258 -6.528140E-07  6.166014E+00  2.391065E-05
       259 -6.925876E-06 -5.231631E+00 -2.694250E-05
       260  1.693358E-06 -5.231705E+00 -1.403780E+00
       261 -4.982143E-07 -4.668080E+00 -9.360023E-06

 displacements (vx,vy,vz) for set NALL and time  0.5000000E-02

         5  0.000000E+00  0.000000E+00  0.000000E+00
         6  0.000000E+00  0.000000E+00  0.000000E+00
         7  0.000000E+00  0.000000E+00  0.000000E+00
         8  0.000000E+00  0.000000E+00  0.000000E+00
        21  0.000000E+00  0.000000E+00  0.000000E+00
        22  0.000000E+00  0.000000E+00  0.000000E+00
        23  0.000000E+00  0.000000E+00  0.000000E+00
        24  0.000000E+00  0.000000E+00  0.000000E+00
        25  0.000000E+00  0.000000E+00  0.000000E+00
        26  0.000000E+00  0.000000E+00  0.000000E+00
        27  0.000000E+00  0.000000E+00  0.000000E+00
        28  0.000000E+00  0.000000E+00  0.000000E+00
        29  0.000000E+00  0.000000E+00  0.000000E+00
        30  0.000000E+00  0.000000E+00  0.000000E+00
        31  0.000000E+00  0.000000E+00  0.000000E+00
        32  0.000000E+00  0.000000E+00  0.000000E+00
        44 -3.490493E-04  1.756991E-04 -7.261396E-05
        45 -1.636580E-05  2.488920E-04 -6.120810E-05
        46  3.696752E-05  2.427243E-04 -2.827207E-05
        47  6.009736E-06  1.446426E-04 -8.973052E-05
        48 -5.975267E-06  1.446556E-04 -8.978076E-05
        49 -3.694851E-05  2.427251E-04 -2.833650E-05
        50  1.658569E-05  2.488783E-04 -6.124341E-05
        51  3.489317E-04  1.757982E-04 -7.253794E-05
        74  5.521935E-04 -6.633217E-04  3.123930E-05
        75  2.260646E-04 -1.107054E-04  6.349467E-05
        76 -1.740439E-04  4.186393E-04  2.845476E-05
        77 -7.112215E-05  2.758440E-04  7.612814E-05
        89 -5.523079E-04 -6.634101E-04  3.131165E-05
        90 -2.258454E-04 -1.106962E-04  6.345206E-05
        91  1.740606E-04  4.186425E-04  2.839720E-05
        92  7.115763E-05  2.758294E-04  7.607860E-05
        98  0.000000E+00  0.000000E+00  0.000000E+00
        99  0.000000E+00  0.000000E+00  0.000000E+00
       100  0.000000E+00  0.000000E+00  0.000000E+00
       101  0.000000E+00  0.000000E+00  0.000000E+00
       102  0.000000E+00  0.000000E+00  0.000000E+00
       124  1.579724E-04  3.449564E-04 -6.187674E-05
       125  1.386595E-07  3.759864E-04 -6.690821E-05
       126 -1.578741E-04  3.448895E-04 -6.172865E-05
       127  2.929074E-08  3.443765E-04 -3.748069E-05
       128 -1.745902E-05  2.013610E-04 -9.198270E-05
       129  7.278467E-08  1.861854E-04 -1.150721E-04
       130  1.753801E-05  2.013618E-04 -9.199360E-05
       131  7.638163E-09  1.045850E-04 -6.301971E-05
       153  3.088758E-04  6.131014E-04 -3.918210E-05
       154 -1.183747E-04  1.187773E-03 -1.844926E-05
       155 -2.921994E-04  4.089449E-04 -3.002975E-06
       156 -1.109305E-04  3.651011E-04 -5.707195E-05
       157 -6.750078E-05  2.591453E-04 -2.727645E-05
       158  8.270866E-05  2.351091E-04 -2.618381E-05
       159  8.832939E-05  2.841385E-04  1.045739E-05
       160  3.663316E-05  3.782488E-05  4.509423E-06
       182  9.742637E-05  7.069095E-04  2.460575E-05
       183  1.471562E-07 -3.184301E-04  4.227661E-05
       184 -9.731872E-05  7.068471E-04  2.447207E-05
       185  2.973013E-08  9.449933E-05  6.185443E-05
       186 -4.314611E-05  1.300817E-05  6.113208E-05
       187  7.355735E-08  1.725612E-04  9.387305E-05
       188  4.322481E-05  1.301126E-05  6.114286E-05
       189  7.310428E-09  1.214710E-04  5.584093E-05
       211  2.922109E-04  4.088929E-04 -2.959005E-06
       212  1.185151E-04  1.187762E-03 -1.851499E-05
       213 -3.088695E-04  6.131485E-04 -3.914424E-05
       214  1.110801E-04  3.651024E-04 -5.712921E-05
       215 -8.828374E-05  2.841389E-04  1.039294E-05
       216 -8.263202E-05  2.351058E-04 -2.623659E-05
       217  6.754833E-05  2.591437E-04 -2.734267E-05
       218 -3.660078E-05  3.782513E-05  4.476984E-06
       250  1.380429E-07  2.544066E-04 -5.236569E-05
       251  2.065477E-05  1.471246E-04 -9.206206E-06
       252  1.250692E-07  3.556664E-04 -1.386835E-05
       253 -2.045855E-05  1.471312E-04 -9.137394E-06
       254  1.428529E-07 -6.667758E-05 -1.869338E-05
       255  5.688238E-08  4.653716E-04 -2.904974E-05
       256  6.059576E-08  1.499561E-04 -6.553149E-05
       257 -3.588670E-05  2.904604E-04 -1.086538E-05
       258  5.000978E-08  4.871425E-05 -1.310885E-05
       259  3.597428E-05  2.904618E-04 -1.084752E-05
       260  6.098923E-08  1.417786E-04  4.529230E-05
       261  1.281046E-08  6.500952E-05 -1.872973E-06

 forces (fx,fy,fz) for set NALL and time  0.5000000E-02

         5 -1.257750E+00 -3.095711E+00  9.049969E-01
         6  1.258086E+00 -3.095952E+00  9.055551E-01
         7 -1.295403E-01  1.725463E+00 -7.536194E-01
         8  1.299369E-01  1.725154E+00 -7.541233E-01
        21 -5.005829E-01  1.684380E+00  2.175010E+00
        22 -5.111454E-04 -7.257953E+00  2.264826E+00
        23  5.009944E-01  1.684325E+00  2.173423E+00
        24 -1.743273E+00  3.537719E+00  4.192441E-01
        25  9.280566E-01 -5.528891E+00 -4.030355E-01
        26 -6.558990E-01  1.191454E-01 -1.755259E-01
        27  3.709463E-01 -3.795149E+00 -2.431754E+00
        28 -5.011135E-04  1.275183E-01 -1.285234E+00
        29 -3.705591E-01 -3.795236E+00 -2.430265E+00
        30  6.565813E-01  1.194189E-01 -1.752559E-01
        31 -9.282856E-01 -5.528876E+00 -4.033972E-01
        32  1.743959E+00  3.537457E+00  4.195595E-01
        44 -1.010907E+01  1.653282E+01 -2.583238E-01
        45  6.098346E-06  5.208334E-01 -1.306830E-01
        46 -4.691204E-06 -1.320399E+00  3.969491E-01
        47  1.688932E-06  9.996427E-01 -4.628155E-01
        48 -1.841064E-06  9.996416E-01 -4.628160E-01
        49  4.202472E-06 -1.320400E+00  3.969493E-01
        50 -4.541383E-06  5.208354E-01 -1.306826E-01
        51  1.010789E+01  1.653248E+01 -2.558758E-01
        74  4.599132E+00 -1.485266E+01  6.662328E-01
        75 -5.197974E-07  5.209067E-01  1.306591E-01
        76  1.409408E-06 -1.320452E+00 -3.969423E-01
        77 -3.491847E-06  9.996534E-01  4.628123E-01
        89 -4.600502E+00 -1.485210E+01  6.680388E-01
        90  2.937379E-06  5.209035E-01  1.306591E-01
        91 -1.821917E-06 -1.320451E+00 -3.969424E-01
        92  2.991625E-06  9.996554E-01  4.628122E-01
        98 -1.031323E-03  7.487046E+00  1.346358E+00
        99 -5.204247E-02  1.345070E+00  5.785856E-01
       100 -2.436071E-04 -9.742177E+00 -3.583984E-01
       101  5.260252E-02  1.344988E+00  5.765694E-01
       102 -1.091897E-03  5.288071E+00 -1.926877E+00
       124  3.033796E+00 -1.706452E+01  4.129451E-01
       125  2.581540E-04  3.574247E+01 -1.941595E-01
       126 -3.033367E+00 -1.706542E+01  4.182700E-01
       127 -3.767821E-07  1.041667E+00 -2.613582E-01
       128 -3.935388E-06  2.240631E+00 -8.016465E-01
       129  1.694277E-07 -2.640799E+00  7.938956E-01
       130  4.328987E-06  2.240630E+00 -8.016457E-01
       131 -4.536005E-07  1.999284E+00 -9.256293E-01
       153  1.923753E+01 -1.511105E+01  3.438695E-01
       154 -3.963798E+00  2.233501E+01  3.975808E-01
       155 -3.858065E+00  7.561034E+00 -1.157834E+00
       156  1.000808E-05  1.041733E+00  2.118185E-05
       157  6.548040E-06  2.240638E+00 -6.012266E-01
       158 -4.971776E-06 -2.640850E+00 -9.901093E-06
       159  1.081280E-07  2.240691E+00  6.012291E-01
       160  1.055803E-06  1.999299E+00  2.881651E-06
       182 -5.228718E+00  2.424723E+01 -6.043217E-01
       183  3.515830E-04 -1.715106E+01  1.632975E+00
       184  5.229253E+00  2.424633E+01 -6.086010E-01
       185 -1.106171E-06 -3.930477E+00  2.613132E-01
       186 -2.176731E-06 -2.731595E+00  8.016237E-01
       187  4.111030E-07 -7.613206E+00 -7.938855E-01
       188  2.483037E-06 -2.731596E+00  8.016234E-01
       189 -3.433553E-07 -2.972984E+00  9.256205E-01
       211  3.856358E+00  7.560454E+00 -1.157082E+00
       212  3.963636E+00  2.233489E+01  3.992261E-01
       213 -1.923933E+01 -1.511060E+01  3.437651E-01
       214 -7.930702E-06  1.041733E+00  1.963238E-05
       215  1.313209E-06  2.240690E+00  6.012293E-01
       216  3.978483E-06 -2.640850E+00 -9.184373E-06
       217 -5.373903E-06  2.240639E+00 -6.012268E-01
       218 -5.325597E-07  1.999299E+00  3.973787E-06
       250  1.549640E-03 -4.703790E+01 -5.202916E-01
       251  3.280308E+00 -1.843507E+01  4.782645E-01
       252  3.209804E-04  4.241113E+01  1.202403E+00
       253 -3.279392E+00 -1.843456E+01  4.839930E-01
       254  2.006848E-03 -2.646538E+01 -3.357717E+00
       255 -2.819436E-06  2.083472E+00  5.192745E-05
       256 -7.236593E-07  4.481276E+00 -1.202445E+00
       257 -6.221048E-06  4.481328E+00  2.280593E-05
       258  5.591946E-07 -5.281704E+00 -2.042945E-05
       259  5.946909E-06  4.481328E+00  2.304178E-05
       260 -1.450495E-06  4.481392E+00  1.202455E+00
       261  4.267806E-07  3.998602E+00  8.015289E-06

 displacements (vx,vy,vz) for set NALL and time  0.7500000E-02

         5  0.000000E+00  0.000000E+00  0.000000E+00
         6  0.000000E+00  0.000000E+00  0.000000E+00
         7  0.000000E+00  0.000000E+00  0.000000E+00
         8  0.000000E+00  0.000000E+00  0.000000E+00
        21  0.000000E+00  0.000000E+00  0.000000E+00
        22  0.000000E+00  0.000000E+00  0.000000E+00
        23  0.000000E+00  0.000000E+00  0.000000E+00
        24  0.000000E+00  0.000000E+00  0.000000E+00
        25  0.000000E+00  0.000000E+00  0.000000E+00
        26  0.000000E+00  0.000000E+00  0.000000E+00
        27  0.000000E+00  0.000000E+00  0.000000E+00
        28  0.000000E+00  0.000000E+00  0.000000E+00
        29  0.000000E+00  0.000000E+00  0.000000E+00
        30  0.000000E+00  0.000000E+00  0.000000E+00
        31  0.000000E+00  0.000000E+00  0.000000E+00
        32  0.000000E+00  0.000000E+00  0.000000E+00
        44  3.410880E-05 -1.978867E-03  2.666829E-04
        45  3.921330E-05 -1.483302E-03  4.568638E-04
        46 -3.855766E-05 -1.066393E-03  5.428791E-04
        47  7.121098E-05 -4.087058E-04  3.231776E-04
        48 -7.130197E-05 -4.087365E-04  3.232917E-04
        49  3.830704E-05 -1.066365E-03  5.430804E-04
        50 -3.971815E-05 -1.483385E-03  4.570634E-04
        51 -3.473352E-05 -1.978525E-03  2.666701E-04
        74  4.711620E-05 -2.367900E-03 -2.873355E-04
        75  5.203789E-05 -1.648138E-03 -4.564804E-04
        76 -2.398962E-05 -9.860803E-04 -5.435580E-04
        77 -1.003746E-04 -3.476173E-04 -3.301344E-04
        89 -4.771764E-05 -2.368233E-03 -2.873698E-04
        90 -5.255313E-05 -1.648056E-03 -4.562927E-04
        91  2.374171E-05 -9.861076E-04 -5.433408E-04
        92  1.002842E-04 -3.475886E-04 -3.300145E-04
        98  0.000000E+00  0.000000E+00  0.000000E+00
        99  0.000000E+00  0.000000E+00  0.000000E+00
       100  0.000000E+00  0.000000E+00  0.000000E+00
       101  0.000000E+00  0.000000E+00  0.000000E+00
       102  0.000000E+00  0.000000E+00  0.000000E+00
       124  7.888795E-05 -1.743050E-03  2.551764E-04
       125 -3.705919E-07 -2.097015E-03  2.666010E-04
       126 -7.957244E-05 -1.743192E-03  2.551550E-04
       127 -2.209156E-07 -1.514263E-03  5.191124E-04
       128 -5.727043E-06 -1.137703E-03  5.529632E-04
       129 -1.426247E-07 -1.052700E-03  5.533336E-04
       130  5.461927E-06 -1.137724E-03  5.528713E-04
       131 -3.801267E-08 -4.324289E-04  3.247329E-04
       153 -1.668034E-05 -2.191852E-03  1.149228E-04
       154 -5.944924E-05 -1.618643E-03 -9.038902E-06
       155  3.048011E-05 -2.278165E-03 -1.363428E-04
       156 -5.349163E-05 -1.633015E-03 -2.688141E-05
       157  2.206314E-07 -8.973899E-04  2.257729E-04
       158  4.049683E-05 -9.342441E-04 -1.256403E-05
       159  8.989008E-06 -8.886207E-04 -2.345193E-04
       160  1.759756E-05 -3.790785E-04  2.119063E-06
       182  3.752772E-05 -1.573882E-03 -2.737397E-04
       183 -3.686950E-07 -2.428940E-03 -2.789073E-04
       184 -3.820060E-05 -1.574019E-03 -2.736807E-04
       185 -2.154578E-07 -1.636852E-03 -5.105060E-04
       186 -1.536442E-05 -1.229555E-03 -5.683509E-04
       187 -1.453572E-07 -1.063295E-03 -5.649680E-04
       188  1.509813E-05 -1.229575E-03 -5.682613E-04
       189 -3.812167E-08 -4.248888E-04 -3.284494E-04
       211 -3.065341E-05 -2.278305E-03 -1.363535E-04
       212  5.966540E-05 -1.618650E-03 -9.356241E-06
       213  1.649203E-05 -2.191714E-03  1.148925E-04
       214  5.273162E-05 -1.633017E-03 -2.677997E-05
       215 -9.147387E-06 -8.886399E-04 -2.343297E-04
       216 -4.054586E-05 -9.342470E-04 -1.232224E-05
       217 -3.794951E-07 -8.973729E-04  2.259606E-04
       218 -1.772772E-05 -3.790785E-04  2.317390E-06
       250 -4.736659E-07 -2.314448E-03  1.079666E-04
       251  5.607513E-06 -1.488523E-03 -4.806347E-06
       252 -5.668874E-07 -1.806572E-03 -7.068980E-06
       253 -6.105197E-06 -1.488518E-03 -5.230179E-06
       254 -4.727956E-07 -2.478884E-03 -1.427556E-04
       255 -1.227554E-07 -1.550124E-03 -1.437229E-05
       256 -1.990897E-07 -9.379780E-04  2.362192E-04
       257 -1.673518E-05 -1.037710E-03 -5.450163E-06
       258 -2.523388E-07 -1.020135E-03 -6.574377E-06
       259  1.646243E-05 -1.037709E-03 -5.436249E-06
       260 -2.002357E-07 -9.414175E-04 -2.464564E-04
       261 -2.377107E-08 -4.172876E-04 -8.498932E-07

 forces (fx,fy,fz) for set NALL and time  0.7500000E-02

         5  1.594384E+00 -2.080809E+00 -7.359475E-01
         6 -1.593493E+00 -2.081509E+00 -7.369052E-01
         7  2.174719E+00  2.269706E-01  8.080795E-01
         8 -2.173799E+00  2.262220E-01  8.092548E-01
        21 -1.658201E+00  2.970533E+00 -1.049803E+01
        22  5.410219E-04 -4.339962E+00 -7.381070E-01
        23  1.656717E+00  2.971928E+00 -1.049474E+01
        24 -2.343067E+00  9.443720E+00 -5.889165E+00
        25  5.168592E-01 -6.025812E+00 -1.875506E-01
        26  1.141081E+00  7.815078E+00  6.001739E+00
        27 -1.269726E+00  3.587429E-01  1.038653E+01
        28  6.036539E-04 -8.990877E-01  1.190865E+00
        29  1.268185E+00  3.601700E-01  1.038300E+01
        30 -1.143833E+00  7.815927E+00  5.998797E+00
        31 -5.180977E-01 -6.025817E+00 -1.822637E-01
        32  2.340427E+00  9.442904E+00 -5.891978E+00
        44  3.470638E+00  2.799925E+01  8.405681E-01
        45 -4.813733E-06 -4.142275E-01  1.039346E-01
        46  3.749234E-06  1.050141E+00 -3.157020E-01
        47 -1.414607E-06 -7.950376E-01  3.680872E-01
        48  1.535618E-06 -7.950368E-01  3.680876E-01
        49 -3.360658E-06  1.050141E+00 -3.157022E-01
        50  3.575594E-06 -4.142291E-01  1.039343E-01
        51 -3.469705E+00  2.800041E+01  8.359208E-01
        74 -6.381759E+00  1.306717E+01 -6.267256E-01
        75  3.585611E-07 -4.142858E-01 -1.039156E-01
        76 -1.126268E-06  1.050182E+00  3.156966E-01
        77  2.849774E-06 -7.950462E-01 -3.680847E-01
        89  6.382569E+00  1.306621E+01 -6.329976E-01
        90 -2.281166E-06 -4.142833E-01 -1.039155E-01
        91  1.454221E-06  1.050182E+00  3.156966E-01
        92 -2.451919E-06 -7.950477E-01 -3.680847E-01
        98  2.946481E-03  1.989797E+01 -9.929325E+00
        99  6.468574E-02 -4.275631E+00  2.733241E-01
       100  5.100571E-03 -1.151585E+01 -1.700187E-01
       101 -6.846508E-02 -4.275636E+00  2.824440E-01
       102  2.986327E-03  1.904359E+01  9.654256E+00
       124  1.041584E+01  1.344626E+01 -3.798402E-01
       125  7.417920E-04  5.631878E+01  1.699158E+00
       126 -1.041767E+01  1.344173E+01 -3.853122E-01
       127  2.998274E-07 -8.284555E-01  2.078629E-01
       128  3.163906E-06 -1.782021E+00  6.375665E-01
       129 -1.348773E-07  2.100281E+00 -6.314020E-01
       130 -3.476795E-06 -1.782020E+00  6.375659E-01
       131  3.607744E-07 -1.590074E+00  7.361732E-01
       153  3.171701E+00 -7.507173E+01 -1.337312E+00
       154 -2.524294E+00  5.469589E+01  2.161610E-01
       155  4.667848E+00 -6.426834E+01  9.207952E-01
       156 -7.937635E-06 -8.285075E-01 -1.680232E-05
       157 -5.240832E-06 -1.782026E+00  4.781684E-01
       158  3.954944E-06  2.100322E+00  7.846145E-06
       159 -7.059382E-08 -1.782068E+00 -4.781703E-01
       160 -8.569459E-07 -1.590086E+00 -2.292009E-06
       182  6.591426E+00  3.304565E+01  2.775487E-01
       183  8.742461E-04  3.202824E+01 -9.854146E-01
       184 -6.593205E+00  3.304118E+01  2.855362E-01
       185  8.799275E-07 -3.330036E+00 -2.078271E-01
       186  1.753062E-06 -4.283537E+00 -6.375484E-01
       187 -3.270876E-07 -4.010906E-01  6.313939E-01
       188 -1.996526E-06 -4.283536E+00 -6.375481E-01
       189  2.730936E-07 -4.091557E+00 -7.361661E-01
       211 -4.662843E+00 -6.426775E+01  9.266923E-01
       212  2.532970E+00  5.469569E+01  1.975750E-01
       213 -3.166865E+00 -7.507243E+01 -1.333518E+00
       214  6.285785E-06 -8.285079E-01 -1.557013E-05
       215 -1.059672E-06 -1.782067E+00 -4.781705E-01
       216 -3.165214E-06  2.100322E+00  7.276233E-06
       217  4.307168E-06 -1.782027E+00  4.781685E-01
       218  4.408364E-07 -1.590086E+00 -3.160647E-06
       250 -6.787106E-03 -1.550268E+02 -3.209083E+00
       251  7.951790E-01  5.117845E+01  2.257060E-01
       252 -2.734261E-03  1.098678E+02  6.037496E-01
       253 -7.981811E-01  5.117903E+01  1.913584E-01
       254 -6.299212E-03 -1.468521E+02  1.335169E+00
       255  2.242681E-06 -1.657020E+00 -4.122288E-05
       256  5.756953E-07 -3.564052E+00  9.563298E-01
       257  4.963837E-06 -3.564094E+00 -1.809803E-05
       258 -4.449940E-07  4.200647E+00  1.619099E-05
       259 -4.745493E-06 -3.564094E+00 -1.828547E-05
       260  1.153764E-06 -3.564144E+00 -9.563378E-01
       261 -3.393964E-07 -3.180175E+00 -6.372167E-06

 displacements (vx,vy,vz) for set NALL and time  0.1000000E-01

         5  0.000000E+00  0.000000E+00  0.000000E+00
         6  0.000000E+00  0.000000E+00  0.000000E+00
         7  0.000000E+00  0.000000E+00  0.000000E+00
         8  0.000000E+00  0.000000E+00  0.000000E+00
        21  0.000000E+00  0.000000E+00  0.000000E+00
        22  0.000000E+00  0.000000E+00  0.000000E+00
        23  0.000000E+00  0.000000E+00  0.000000E+00
        24  0.000000E+00  0.000000E+00  0.000000E+00
        25  0.000000E+00  0.000000E+00  0.000000E+00
        26  0.000000E+00  0.000000E+00  0.000000E+00
        27  0.000000E+00  0.000000E+00  0.000000E+00
        28  0.000000E+00  0.000000E+00  0.000000E+00
        29  0.000000E+00  0.000000E+00  0.000000E+00
        30  0.000000E+00  0.000000E+00  0.000000E+00
        31  0.000000E+00  0.000000E+00  0.000000E+00
        32  0.000000E+00  0.000000E+00  0.000000E+00
        44 -8.513513E-05  1.000935E-03 -1.439291E-04
        45 -1.969569E-05  7.748617E-04 -2.319143E-04
        46  2.252707E-05  5.577295E-04 -2.674831E-04
        47 -3.451374E-05  2.252669E-04 -1.743375E-04
        48  3.450971E-05  2.252630E-04 -1.743366E-04
        49 -2.250287E-05  5.577299E-04 -2.675041E-04
        50  1.967888E-05  7.748747E-04 -2.318986E-04
        51  8.524184E-05  1.000847E-03 -1.439108E-04
        74  6.544172E-05  1.015369E-03  1.440781E-04
        75  9.815809E-06  7.835754E-04  2.321708E-04
        76 -1.839153E-05  5.543403E-04  2.677027E-04
        77  3.736944E-05  2.229480E-04  1.743407E-04
        89 -6.534810E-05  1.015453E-03  1.440561E-04
        90 -9.822358E-06  7.835542E-04  2.321457E-04
        91  1.839993E-05  5.543525E-04  2.677119E-04
        92 -3.736778E-05  2.229460E-04  1.743437E-04
        98  0.000000E+00  0.000000E+00  0.000000E+00
        99  0.000000E+00  0.000000E+00  0.000000E+00
       100  0.000000E+00  0.000000E+00  0.000000E+00
       101  0.000000E+00  0.000000E+00  0.000000E+00
       102  0.000000E+00  0.000000E+00  0.000000E+00
       124  1.132666E-05  9.089094E-04 -1.356699E-04
       125 -2.728180E-08  1.091930E-03 -1.419669E-04
       126 -1.130468E-05  9.089626E-04 -1.357034E-04
       127  1.741893E-08  7.990305E-04 -2.584626E-04
       128 -3.347764E-06  5.919639E-04 -2.859187E-04
       129 -1.407709E-08  5.506319E-04 -2.909327E-04
       130  3.346611E-06  5.919625E-04 -2.859027E-04
       131  2.046989E-09  2.315718E-04 -1.704633E-04
       153  7.145337E-05  1.164382E-03 -6.389887E-05
       154 -4.840278E-06  1.032206E-03  2.758036E-08
       155 -6.432865E-05  1.179251E-03  6.399905E-05
       156 -6.791666E-07  8.717049E-04  8.308961E-07
       157 -1.444078E-05  4.864531E-04 -1.155218E-04
       158  1.257049E-06  4.925118E-04  3.677927E-07
       159  1.287641E-05  4.830834E-04  1.154701E-04
       160  1.799849E-07  1.890295E-04  7.748134E-08
       182 -5.937118E-06  9.050278E-04  1.357890E-04
       183  2.284224E-08  1.094280E-03  1.418015E-04
       184  5.999223E-06  9.050656E-04  1.358493E-04
       185  1.181516E-08  7.968245E-04  2.566225E-04
       186  3.073797E-07  5.928014E-04  2.860195E-04
       187 -2.988294E-09  5.506423E-04  2.901499E-04
       188 -3.051102E-07  5.928092E-04  2.860079E-04
       189  4.047376E-10  2.322346E-04  1.704661E-04
       211  6.436498E-05  1.179268E-03  6.399353E-05
       212  4.809054E-06  1.032156E-03  6.076380E-08
       213 -7.142158E-05  1.164316E-03 -6.393986E-05
       214  7.041729E-07  8.717075E-04  8.335239E-07
       215 -1.287772E-05  4.830847E-04  1.154732E-04
       216 -1.267734E-06  4.925022E-04  3.585855E-07
       217  1.445000E-05  4.864482E-04 -1.155212E-04
       218 -1.780608E-07  1.890308E-04  6.751650E-08
       250 -1.121751E-08  1.203804E-03 -6.334107E-05
       251 -4.151628E-06  7.422613E-04 -2.342954E-08