    1C
    1UUSER                                                              
    1UDATE              11.july.2018                                    
    1UTIME              16:25:34                                        
    1UHOST                                                              
    1UPGM               CalculiX                                        
    1UVERSION           Version 2.13                             
    1UCOMPILETIME       jue jun 14 00:40:39 CEST 2018                    
    1UDIR                                                               
    1UDBN                                                               
    1UMAT    1EL                                                        
    2C                           201                                     1
 -1         1 0.00000E+00 0.00000E+00 0.00000E+00
 -1         2 1.00000E+00 0.00000E+00 0.00000E+00
 -1         3 1.00000E+00 1.00000E+00 0.00000E+00
 -1         4 0.00000E+00 1.00000E+00 0.00000E+00
 -1         9 2.50000E-01 0.00000E+00 0.00000E+00
 -1        10 5.00000E-01 0.00000E+00 0.00000E+00
 -1        11 7.50000E-01 0.00000E+00 0.00000E+00
 -1        12 1.00000E+00 2.50000E-01 0.00000E+00
 -1        13 1.00000E+00 5.00000E-01 0.00000E+00
 -1        14 1.00000E+00 7.50000E-01 0.00000E+00
 -1        15 7.50000E-01 1.00000E+00 0.00000E+00
 -1        16 5.00000E-01 1.00000E+00 0.00000E+00
 -1        17 2.50000E-01 1.00000E+00 0.00000E+00
 -1        18 0.00000E+00 7.50000E-01 0.00000E+00
 -1        19 0.00000E+00 5.00000E-01 0.00000E+00
 -1        20 0.00000E+00 2.50000E-01 0.00000E+00
 -1        33 1.00000E+00 0.00000E+00 5.00000E-01
 -1        34 1.00000E+00 0.00000E+00 1.00000E+00
 -1        35 1.00000E+00 0.00000E+00 1.50000E+00
 -1        36 1.00000E+00 0.00000E+00 2.00000E+00
 -1        37 1.00000E+00 0.00000E+00 2.50000E+00
 -1        38 1.00000E+00 0.00000E+00 3.00000E+00
 -1        39 1.00000E+00 0.00000E+00 3.50000E+00
 -1        40 1.00000E+00 0.00000E+00 4.00000E+00
 -1        41 1.00000E+00 0.00000E+00 4.50000E+00
 -1        42 1.00000E+00 0.00000E+00 5.00000E+00
 -1        43 1.00000E+00 0.00000E+00 5.50000E+00
 -1        44 1.00000E+00 0.00000E+00 6.00000E+00
 -1        51 0.00000E+00 0.00000E+00 6.00000E+00
 -1        52 0.00000E+00 0.00000E+00 5.50000E+00
 -1        53 0.00000E+00 0.00000E+00 5.00000E+00
 -1        54 0.00000E+00 0.00000E+00 4.50000E+00
 -1        55 0.00000E+00 0.00000E+00 4.00000E+00
 -1        56 0.00000E+00 0.00000E+00 3.50000E+00
 -1        57 0.00000E+00 0.00000E+00 3.00000E+00
 -1        58 0.00000E+00 0.00000E+00 2.50000E+00
 -1        59 0.00000E+00 0.00000E+00 2.00000E+00
 -1        60 0.00000E+00 0.00000E+00 1.50000E+00
 -1        61 0.00000E+00 0.00000E+00 1.00000E+00
 -1        62 0.00000E+00 0.00000E+00 5.00000E-01
 -1        63 1.00000E+00 1.00000E+00 5.00000E-01
 -1        64 1.00000E+00 1.00000E+00 1.00000E+00
 -1        65 1.00000E+00 1.00000E+00 1.50000E+00
 -1        66 1.00000E+00 1.00000E+00 2.00000E+00
 -1        67 1.00000E+00 1.00000E+00 2.50000E+00
 -1        68 1.00000E+00 1.00000E+00 3.00000E+00
 -1        69 1.00000E+00 1.00000E+00 3.50000E+00
 -1        70 1.00000E+00 1.00000E+00 4.00000E+00
 -1        71 1.00000E+00 1.00000E+00 4.50000E+00
 -1        72 1.00000E+00 1.00000E+00 5.00000E+00
 -1        73 1.00000E+00 1.00000E+00 5.50000E+00
 -1        74 1.00000E+00 1.00000E+00 6.00000E+00
 -1        78 0.00000E+00 1.00000E+00 5.00000E-01
 -1        79 0.00000E+00 1.00000E+00 1.00000E+00
 -1        80 0.00000E+00 1.00000E+00 1.50000E+00
 -1        81 0.00000E+00 1.00000E+00 2.00000E+00
 -1        82 0.00000E+00 1.00000E+00 2.50000E+00
 -1        83 0.00000E+00 1.00000E+00 3.00000E+00
 -1        84 0.00000E+00 1.00000E+00 3.50000E+00
 -1        85 0.00000E+00 1.00000E+00 4.00000E+00
 -1        86 0.00000E+00 1.00000E+00 4.50000E+00
 -1        87 0.00000E+00 1.00000E+00 5.00000E+00
 -1        88 0.00000E+00 1.00000E+00 5.50000E+00
 -1        89 0.00000E+00 1.00000E+00 6.00000E+00
 -1        93 5.00000E-01 2.50000E-01 0.00000E+00
 -1        94 2.50000E-01 5.00000E-01 0.00000E+00
 -1        95 5.00000E-01 5.00000E-01 0.00000E+00
 -1        96 7.50000E-01 5.00000E-01 0.00000E+00
 -1        97 5.00000E-01 7.50000E-01 0.00000E+00
 -1       103 5.00000E-01 0.00000E+00 5.00000E-01
 -1       104 2.50000E-01 0.00000E+00 1.00000E+00
 -1       105 5.00000E-01 0.00000E+00 1.00000E+00
 -1       106 7.50000E-01 0.00000E+00 1.00000E+00
 -1       107 5.00000E-01 0.00000E+00 1.50000E+00
 -1       108 2.50000E-01 0.00000E+00 2.00000E+00
 -1       109 5.00000E-01 0.00000E+00 2.00000E+00
 -1       110 7.50000E-01 0.00000E+00 2.00000E+00
 -1       111 5.00000E-01 0.00000E+00 2.50000E+00
 -1       112 2.50000E-01 0.00000E+00 3.00000E+00
 -1       113 5.00000E-01 0.00000E+00 3.00000E+00
 -1       114 7.50000E-01 0.00000E+00 3.00000E+00
 -1       115 5.00000E-01 0.00000E+00 3.50000E+00
 -1       116 2.50000E-01 0.00000E+00 4.00000E+00
 -1       117 5.00000E-01 0.00000E+00 4.00000E+00
 -1       118 7.50000E-01 0.00000E+00 4.00000E+00
 -1       119 5.00000E-01 0.00000E+00 4.50000E+00
 -1       120 2.50000E-01 0.00000E+00 5.00000E+00
 -1       121 5.00000E-01 0.00000E+00 5.00000E+00
 -1       122 7.50000E-01 0.00000E+00 5.00000E+00
 -1       123 5.00000E-01 0.00000E+00 5.50000E+00
 -1       124 2.50000E-01 0.00000E+00 6.00000E+00
 -1       125 5.00000E-01 0.00000E+00 6.00000E+00
 -1       126 7.50000E-01 0.00000E+00 6.00000E+00
 -1       132 1.00000E+00 5.00000E-01 5.00000E-01
 -1       133 1.00000E+00 2.50000E-01 1.00000E+00
 -1       134 1.00000E+00 5.00000E-01 1.00000E+00
 -1       135 1.00000E+00 7.50000E-01 1.00000E+00
 -1       136 1.00000E+00 5.00000E-01 1.50000E+00
 -1       137 1.00000E+00 2.50000E-01 2.00000E+00
 -1       138 1.00000E+00 5.00000E-01 2.00000E+00
 -1       139 1.00000E+00 7.50000E-01 2.00000E+00
 -1       140 1.00000E+00 5.00000E-01 2.50000E+00
 -1       141 1.00000E+00 2.50000E-01 3.00000E+00
 -1       142 1.00000E+00 5.00000E-01 3.00000E+00
 -1       143 1.00000E+00 7.50000E-01 3.00000E+00
 -1       144 1.00000E+00 5.00000E-01 3.50000E+00
 -1       145 1.00000E+00 2.50000E-01 4.00000E+00
 -1       146 1.00000E+00 5.00000E-01 4.00000E+00
 -1       147 1.00000E+00 7.50000E-01 4.00000E+00
 -1       148 1.00000E+00 5.00000E-01 4.50000E+00
 -1       149 1.00000E+00 2.50000E-01 5.00000E+00
 -1       150 1.00000E+00 5.00000E-01 5.00000E+00
 -1       151 1.00000E+00 7.50000E-01 5.00000E+00
 -1       152 1.00000E+00 5.00000E-01 5.50000E+00
 -1       153 1.00000E+00 2.50000E-01 6.00000E+00
 -1       154 1.00000E+00 5.00000E-01 6.00000E+00
 -1       155 1.00000E+00 7.50000E-01 6.00000E+00
 -1       161 5.00000E-01 1.00000E+00 5.00000E-01
 -1       162 7.50000E-01 1.00000E+00 1.00000E+00
 -1       163 5.00000E-01 1.00000E+00 1.00000E+00
 -1       164 2.50000E-01 1.00000E+00 1.00000E+00
 -1       165 5.00000E-01 1.00000E+00 1.50000E+00
 -1       166 7.50000E-01 1.00000E+00 2.00000E+00
 -1       167 5.00000E-01 1.00000E+00 2.00000E+00
 -1       168 2.50000E-01 1.00000E+00 2.00000E+00
 -1       169 5.00000E-01 1.00000E+00 2.50000E+00
 -1       170 7.50000E-01 1.00000E+00 3.00000E+00
 -1       171 5.00000E-01 1.00000E+00 3.00000E+00
 -1       172 2.50000E-01 1.00000E+00 3.00000E+00
 -1       173 5.00000E-01 1.00000E+00 3.50000E+00
 -1       174 7.50000E-01 1.00000E+00 4.00000E+00
 -1       175 5.00000E-01 1.00000E+00 4.00000E+00
 -1       176 2.50000E-01 1.00000E+00 4.00000E+00
 -1       177 5.00000E-01 1.00000E+00 4.50000E+00
 -1       178 7.50000E-01 1.00000E+00 5.00000E+00
 -1       179 5.00000E-01 1.00000E+00 5.00000E+00
 -1       180 2.50000E-01 1.00000E+00 5.00000E+00
 -1       181 5.00000E-01 1.00000E+00 5.50000E+00
 -1       182 7.50000E-01 1.00000E+00 6.00000E+00
 -1       183 5.00000E-01 1.00000E+00 6.00000E+00
 -1       184 2.50000E-01 1.00000E+00 6.00000E+00
 -1       190 0.00000E+00 5.00000E-01 5.00000E-01
 -1       191 0.00000E+00 7.50000E-01 1.00000E+00
 -1       192 0.00000E+00 5.00000E-01 1.00000E+00
 -1       193 0.00000E+00 2.50000E-01 1.00000E+00
 -1       194 0.00000E+00 5.00000E-01 1.50000E+00
 -1       195 0.00000E+00 7.50000E-01 2.00000E+00
 -1       196 0.00000E+00 5.00000E-01 2.00000E+00
 -1       197 0.00000E+00 2.50000E-01 2.00000E+00
 -1       198 0.00000E+00 5.00000E-01 2.50000E+00
 -1       199 0.00000E+00 7.50000E-01 3.00000E+00
 -1       200 0.00000E+00 5.00000E-01 3.00000E+00
 -1       201 0.00000E+00 2.50000E-01 3.00000E+00
 -1       202 0.00000E+00 5.00000E-01 3.50000E+00
 -1       203 0.00000E+00 7.50000E-01 4.00000E+00
 -1       204 0.00000E+00 5.00000E-01 4.00000E+00
 -1       205 0.00000E+00 2.50000E-01 4.00000E+00
 -1       206 0.00000E+00 5.00000E-01 4.50000E+00
 -1       207 0.00000E+00 7.50000E-01 5.00000E+00
 -1       208 0.00000E+00 5.00000E-01 5.00000E+00
 -1       209 0.00000E+00 2.50000E-01 5.00000E+00
 -1       210 0.00000E+00 5.00000E-01 5.50000E+00
 -1       211 0.00000E+00 7.50000E-01 6.00000E+00
 -1       212 0.00000E+00 5.00000E-01 6.00000E+00
 -1       213 0.00000E+00 2.50000E-01 6.00000E+00
 -1       219 5.00000E-01 5.00000E-01 5.00000E-01
 -1       220 5.00000E-01 2.50000E-01 1.00000E+00
 -1       221 2.50000E-01 5.00000E-01 1.00000E+00
 -1       222 5.00000E-01 5.00000E-01 1.00000E+00
 -1       223 7.50000E-01 5.00000E-01 1.00000E+00
 -1       224 5.00000E-01 7.50000E-01 1.00000E+00
 -1       225 5.00000E-01 5.00000E-01 1.50000E+00
 -1       226 5.00000E-01 2.50000E-01 2.00000E+00
 -1       227 2.50000E-01 5.00000E-01 2.00000E+00
 -1       228 5.00000E-01 5.00000E-01 2.00000E+00
 -1       229 7.50000E-01 5.00000E-01 2.00000E+00
 -1       230 5.00000E-01 7.50000E-01 2.00000E+00
 -1       231 5.00000E-01 5.00000E-01 2.50000E+00
 -1       232 5.00000E-01 2.50000E-01 3.00000E+00
 -1       233 2.50000E-01 5.00000E-01 3.00000E+00
 -1       234 5.00000E-01 5.00000E-01 3.00000E+00
 -1       235 7.50000E-01 5.00000E-01 3.00000E+00
 -1       236 5.00000E-01 7.50000E-01 3.00000E+00
 -1       237 5.00000E-01 5.00000E-01 3.50000E+00
 -1       238 5.00000E-01 2.50000E-01 4.00000E+00
 -1       239 2.50000E-01 5.00000E-01 4.00000E+00
 -1       240 5.00000E-01 5.00000E-01 4.00000E+00
 -1       241 7.50000E-01 5.00000E-01 4.00000E+00
 -1       242 5.00000E-01 7.50000E-01 4.00000E+00
 -1       243 5.00000E-01 5.00000E-01 4.50000E+00
 -1       244 5.00000E-01 2.50000E-01 5.00000E+00
 -1       245 2.50000E-01 5.00000E-01 5.00000E+00
 -1       246 5.00000E-01 5.00000E-01 5.00000E+00
 -1       247 7.50000E-01 5.00000E-01 5.00000E+00
 -1       248 5.00000E-01 7.50000E-01 5.00000E+00
 -1       249 5.00000E-01 5.00000E-01 5.50000E+00
 -1       250 5.00000E-01 2.50000E-01 6.00000E+00
 -1       251 2.50000E-01 5.00000E-01 6.00000E+00
 -1       252 5.00000E-01 5.00000E-01 6.00000E+00
 -1       253 7.50000E-01 5.00000E-01 6.00000E+00
 -1       254 5.00000E-01 7.50000E-01 6.00000E+00
 -3
    3C                            24                                     1
 -1         1    4    0    1
 -2         1        10        95        19        61       105       222       192         9        93
 -2        94        20        62       103       219       190       104       220       221       193
 -1         2    4    0    1
 -2        10         2        13        95       105        34       134       222        11        12
 -2        96        93       103        33       132       219       106       133       223       220
 -1         3    4    0    1
 -2        19        95        16         4       192       222       163        79        94        97
 -2        17        18       190       219       161        78       221       224       164       191
 -1         4    4    0    1
 -2        95        13         3        16       222       134        64       163        96        14
 -2        15        97       219       132        63       161       223       135       162       224
 -1         5    4    0    1
 -2        61       105       222       192        59       109       228       196       104       220
 -2       221       193        60       107       225       194       108       226       227       197
 -1         6    4    0    1
 -2       105        34       134       222       109        36       138       228       106       133
 -2       223       220       107        35       136       225       110       137       229       226
 -1         7    4    0    1
 -2       192       222       163        79       196       228       167        81       221       224
 -2       164       191       194       225       165        80       227       230       168       195
 -1         8    4    0    1
 -2       222       134        64       163       228       138        66       167       223       135
 -2       162       224       225       136        65       165       229       139       166       230
 -1         9    4    0    1
 -2        59       109       228       196        57       113       234       200       108       226
 -2       227       197        58       111       231       198       112       232       233       201
 -1        10    4    0    1
 -2       109        36       138       228       113        38       142       234       110       137
 -2       229       226       111        37       140       231       114       141       235       232
 -1        11    4    0    1
 -2       196       228       167        81       200       234       171        83       227       230
 -2       168       195       198       231       169        82       233       236       172       199
 -1        12    4    0    1
 -2       228       138        66       167       234       142        68       171       229       139
 -2       166       230       231       140        67       169       235       143       170       236
 -1        13    4    0    1
 -2        57       113       234       200        55       117       240       204       112       232
 -2       233       201        56       115       237       202       116       238       239       205
 -1        14    4    0    1
 -2       113        38       142       234       117        40       146       240       114       141
 -2       235       232       115        39       144       237       118       145       241       238
 -1        15    4    0    1
 -2       200       234       171        83       204       240       175        85       233       236
 -2       172       199       202       237       173        84       239       242       176       203
 -1        16    4    0    1
 -2       234       142        68       171       240       146        70       175       235       143
 -2       170       236       237       144        69       173       241       147       174       242
 -1        17    4    0    1
 -2        55       117       240       204        53       121       246       208       116       238
 -2       239       205        54       119       243       206       120       244       245       209
 -1        18    4    0    1
 -2       117        40       146       240       121        42       150       246       118       145
 -2       241       238       119        41       148       243       122       149       247       244
 -1        19    4    0    1
 -2       204       240       175        85       208       246       179        87       239       242
 -2       176       203       206       243       177        86       245       248       180       207
 -1        20    4    0    1
 -2       240       146        70       175       246       150        72       179       241       147
 -2       174       242       243       148        71       177       247       151       178       248
 -1        21    4    0    1
 -2        53       121       246       208        51       125       252       212       120       244
 -2       245       209        52       123       249       210       124       250       251       213
 -1        22    4    0    1
 -2       121        42       150       246       125        44       154       252       122       149
 -2       247       244       123        43       152       249       126       153       253       250
 -1        23    4    0    1
 -2       208       246       179        87       212       252       183        89       245       248
 -2       180       207       210       249       181        88       251       254       184       211
 -1        24    4    0    1
 -2       246       150        72       179       252       154        74       183       247       151
 -2       178       248       249       152        73       181       253       155       182       254
 -3
    1PSTEP                         1           1           1          
  100CL  101 2.50000E-03         201                     1    1           1
 -4  DISP        4    1
 -5  D1          1    2    1    0
 -5  D2          1    2    2    0
 -5  D3          1    2    3    0
 -5  ALL         1    2    0    0    1ALL
 -1         1 0.00000E+00 0.00000E+00 0.00000E+00
 -1         2 0.00000E+00 0.00000E+00 0.00000E+00
 -1         3 0.00000E+00 0.00000E+00 0.00000E+00
 -1         4 0.00000E+00 0.00000E+00 0.00000E+00
 -1         9 0.00000E+00 0.00000E+00 0.00000E+00
 -1        10 0.00000E+00 0.00000E+00 0.00000E+00
 -1        11 0.00000E+00 0.00000E+00 0.00000E+00
 -1        12 0.00000E+00 0.00000E+00 0.00000E+00
 -1        13 0.00000E+00 0.00000E+00 0.00000E+00
 -1        14 0.00000E+00 0.00000E+00 0.00000E+00
 -1        15 0.00000E+00 0.00000E+00 0.00000E+00
 -1        16 0.00000E+00 0.00000E+00 0.00000E+00
 -1        17 0.00000E+00 0.00000E+00 0.00000E+00
 -1        18 0.00000E+00 0.00000E+00 0.00000E+00
 -1        19 0.00000E+00 0.00000E+00 0.00000E+00
 -1        20 0.00000E+00 0.00000E+00 0.00000E+00
 -1        33 7.57765E-05-1.84184E-04-2.42538E-04
 -1        34 3.73370E-05-5.70535E-04-4.44494E-04
 -1        35 3.06462E-05-1.14950E-03-5.74469E-04
 -1        36 9.41305E-06-1.81065E-03-6.42840E-04
 -1        37-5.25744E-06-2.50043E-03-6.51775E-04
 -1        38-2.31995E-05-3.19117E-03-6.21858E-04
 -1        39-5.10657E-05-3.79023E-03-4.60728E-04
 -1        40-5.60594E-05-4.20501E-03-2.55144E-04
 -1        41-4.54473E-05-4.23874E-03-8.09656E-05
 -1        42-6.09687E-05-4.44421E-03-2.12342E-04
 -1        43 6.76692E-05-4.14322E-03 8.11635E-05
 -1        44-1.83206E-04-4.19078E-03 5.27240E-04
 -1        51 1.83201E-04-4.19077E-03 5.27245E-04
 -1        52-6.76952E-05-4.14322E-03 8.11598E-05
 -1        53 6.09531E-05-4.44420E-03-2.12337E-04
 -1        54 4.54212E-05-4.23874E-03-8.09665E-05
 -1        55 5.60405E-05-4.20500E-03-2.55144E-04
 -1        56 5.10442E-05-3.79023E-03-4.60731E-04
 -1        57 2.31835E-05-3.19117E-03-6.21860E-04
 -1        58 5.24308E-06-2.50043E-03-6.51779E-04
 -1        59-9.42254E-06-1.81064E-03-6.42843E-04
 -1        60-3.06529E-05-1.14950E-03-5.74472E-04
 -1        61-3.73401E-05-5.70535E-04-4.44496E-04
 -1        62-7.57776E-05-1.84184E-04-2.42540E-04
 -1        63-7.40836E-05-1.81680E-04 2.37568E-04
 -1        64-3.71095E-05-5.69742E-04 4.33838E-04
 -1        65-2.72210E-05-1.14883E-03 5.59524E-04
 -1        66-9.02432E-06-1.81998E-03 6.22922E-04
 -1        67 4.81244E-06-2.48628E-03 6.27248E-04
 -1        68 1.35470E-05-3.19208E-03 5.85511E-04
 -1        69 7.51349E-05-3.80597E-03 4.22153E-04
 -1        70 9.09424E-05-4.33689E-03 2.18473E-04
 -1        71-3.06770E-05-4.06019E-03 3.63206E-05
 -1        72-1.84354E-04-4.06306E-03 1.13077E-04
 -1        73 3.31231E-04-4.75379E-03-2.00009E-04
 -1        74 5.93919E-04-5.56952E-03-5.94316E-04
 -1        78 7.40828E-05-1.81679E-04 2.37567E-04
 -1        79 3.71065E-05-5.69741E-04 4.33835E-04
 -1        80 2.72155E-05-1.14883E-03 5.59521E-04
 -1        81 9.01484E-06-1.81998E-03 6.22919E-04
 -1        82-4.82449E-06-2.48628E-03 6.27245E-04
 -1        83-1.35641E-05-3.19208E-03 5.85508E-04
 -1        84-7.51522E-05-3.80597E-03 4.22151E-04
 -1        85-9.09659E-05-4.33688E-03 2.18470E-04
 -1        86 3.06582E-05-4.06019E-03 3.63224E-05
 -1        87 1.84327E-04-4.06305E-03 1.13078E-04
 -1        88-3.31240E-04-4.75380E-03-1.99998E-04
 -1        89-5.93936E-04-5.56951E-03-5.94307E-04
 -1        93 0.00000E+00 0.00000E+00 0.00000E+00
 -1        94 0.00000E+00 0.00000E+00 0.00000E+00
 -1        95 0.00000E+00 0.00000E+00 0.00000E+00
 -1        96 0.00000E+00 0.00000E+00 0.00000E+00
 -1        97 0.00000E+00 0.00000E+00 0.00000E+00
 -1       103-4.27831E-10-2.15331E-04-2.38082E-04
 -1       104-1.86084E-05-5.93854E-04-4.51329E-04
 -1       105-1.73329E-09-5.96809E-04-4.54498E-04
 -1       106 1.86052E-05-5.93854E-04-4.51328E-04
 -1       107-3.13155E-09-1.16127E-03-5.77684E-04
 -1       108-3.84848E-06-1.81301E-03-6.47334E-04
 -1       109-5.34249E-09-1.82667E-03-6.45488E-04
 -1       110 3.83841E-06-1.81301E-03-6.47333E-04
 -1       111-6.76752E-09-2.48974E-03-6.57025E-04
 -1       112 8.15342E-06-3.22590E-03-6.22534E-04
 -1       113-9.43314E-09-3.21890E-03-6.24707E-04
 -1       114-8.17090E-06-3.22590E-03-6.22533E-04
 -1       115-9.88440E-09-3.73980E-03-4.70919E-04
 -1       116 4.08225E-05-4.17952E-03-2.48467E-04
 -1       117-1.30891E-08-4.34498E-03-2.17777E-04
 -1       118-4.08450E-05-4.17953E-03-2.48467E-04
 -1       119-1.06460E-08-4.21821E-03-9.28136E-05
 -1       120-9.13755E-06-4.67166E-03-1.53000E-04
 -1       121-1.57446E-08-4.49951E-03-1.52882E-04
 -1       122 9.11369E-06-4.67167E-03-1.53002E-04
 -1       123-6.86905E-09-4.12944E-03-5.54971E-05
 -1       124 2.05456E-04-3.52601E-03 5.06194E-04
 -1       125-2.40667E-08-4.26875E-03 5.28626E-04
 -1       126-2.05481E-04-3.52601E-03 5.06194E-04
 -1       132 1.03225E-06-1.40498E-04-2.31095E-06
 -1       133 1.91839E-05-5.55747E-04-2.11730E-04
 -1       134 1.26833E-06-5.61183E-04-4.15856E-06
 -1       135-1.81054E-05-5.55885E-04 2.01856E-04
 -1       136-2.18647E-07-1.12853E-03-8.07931E-06
 -1       137 6.25483E-06-1.80722E-03-3.20299E-04
 -1       138 8.05131E-07-1.79635E-03-1.06633E-05
 -1       139-4.66201E-06-1.80974E-03 3.00873E-04
 -1       140 2.38554E-06-2.51975E-03-1.32658E-05
 -1       141-1.33924E-05-3.17313E-03-2.93200E-04
 -1       142 7.67043E-06-3.18193E-03-7.34160E-06
 -1       143 1.48272E-05-3.18175E-03 2.63976E-04
 -1       144-1.25798E-05-3.81479E-03-1.83938E-05
 -1       145-1.85952E-05-4.21690E-03-1.64433E-04
 -1       146-1.78978E-05-4.08491E-03-3.61031E-05
 -1       147 1.44867E-05-4.25341E-03 1.19210E-04
 -1       148 3.83053E-05-4.38501E-03-3.43781E-05
 -1       149-6.56012E-05-4.05279E-03-7.21770E-05
 -1       150 1.18184E-04-4.08615E-03-2.61826E-06
 -1       151 6.30277E-05-3.94758E-03 4.03243E-06
 -1       152-1.79240E-04-4.42063E-03 1.79550E-05
 -1       153 1.81595E-04-4.24622E-03 2.21981E-04
 -1       154-1.59800E-04-2.71221E-03-2.99522E-05
 -1       155-1.90877E-04-4.64453E-03-2.90081E-04
 -1       161-3.25441E-10-2.13602E-04 2.32681E-04
 -1       162-1.82633E-05-5.92912E-04 4.41573E-04
 -1       163-1.27089E-09-5.93278E-04 4.44045E-04
 -1       164 1.82606E-05-5.92912E-04 4.41572E-04
 -1       165-2.83470E-09-1.16131E-03 5.63135E-04
 -1       166-4.65981E-06-1.80922E-03 6.26914E-04
 -1       167-4.22163E-09-1.82071E-03 6.29899E-04
 -1       168 4.65084E-06-1.80922E-03 6.26912E-04
 -1       169-6.39041E-09-2.49119E-03 6.26992E-04
 -1       170 7.72484E-06-3.22563E-03 5.93550E-04
 -1       171-7.23572E-09-3.17378E-03 5.86805E-04
 -1       172-7.74062E-06-3.22563E-03 5.93548E-04
 -1       173-9.71178E-09-3.76898E-03 4.35624E-04
 -1       174 4.09039E-05-4.09514E-03 2.00534E-04
 -1       175-8.77170E-09-4.22661E-03 2.02867E-04
 -1       176-4.09245E-05-4.09513E-03 2.00533E-04
 -1       177-1.14701E-08-4.15845E-03 2.81090E-05
 -1       178-7.23061E-05-4.81158E-03 9.32250E-05
 -1       179-5.55081E-09-4.23380E-03 5.04620E-05
 -1       180 7.22870E-05-4.81158E-03 9.32245E-05
 -1       181-1.22098E-08-4.40935E-03-7.22674E-05
 -1       182 1.99049E-04-2.94280E-03-5.66468E-04
 -1       183 6.83189E-09-5.36572E-03-5.69553E-04
 -1       184-1.99051E-04-2.94280E-03-5.66458E-04
 -1       190-1.03341E-06-1.40498E-04-2.31219E-06
 -1       191 1.81023E-05-5.55885E-04 2.01853E-04
 -1       192-1.27146E-06-5.61183E-04-4.16091E-06
 -1       193-1.91871E-05-5.55747E-04-2.11733E-04
 -1       194 2.12504E-07-1.12853E-03-8.08230E-06
 -1       195 4.65252E-06-1.80974E-03 3.00869E-04
 -1       196-8.14613E-07-1.79635E-03-1.06666E-05
 -1       197-6.26434E-06-1.80721E-03-3.20302E-04
 -1       198-2.39872E-06-2.51975E-03-1.32691E-05
 -1       199-1.48439E-05-3.18175E-03 2.63973E-04
 -1       200-7.68688E-06-3.18193E-03-7.34448E-06
 -1       201 1.33763E-05-3.17313E-03-2.93203E-04
 -1       202 1.25605E-05-3.81478E-03-1.83960E-05
 -1       203-1.45090E-05-4.25341E-03 1.19208E-04
 -1       204 1.78770E-05-4.08491E-03-3.61042E-05
 -1       205 1.85750E-05-4.21689E-03-1.64434E-04
 -1       206-3.83278E-05-4.38501E-03-3.43776E-05
 -1       207-6.30514E-05-3.94757E-03 4.03384E-06
 -1       208-1.18205E-04-4.08615E-03-2.61613E-06
 -1       209 6.55844E-05-4.05279E-03-7.21736E-05
 -1       210 1.79223E-04-4.42062E-03 1.79588E-05
 -1       211 1.90863E-04-4.64454E-03-2.90073E-04
 -1       212 1.59791E-04-2.71224E-03-2.99486E-05
 -1       213-1.81608E-04-4.24623E-03 2.21983E-04
 -1       219-4.54573E-10-1.70986E-04-2.07102E-06
 -1       220-1.67059E-09-5.79488E-04-2.18427E-04
 -1       221-6.05656E-07-5.80798E-04-5.26540E-06
 -1       222-1.55931E-09-5.82746E-04-5.50597E-06
 -1       223 6.02581E-07-5.80798E-04-5.26429E-06
 -1       224-1.43898E-09-5.77530E-04 2.08354E-04
 -1       225-3.01396E-09-1.14287E-03-7.41921E-06
 -1       226-5.06438E-09-1.81693E-03-3.25426E-04
 -1       227-5.08994E-07-1.79908E-03-9.93790E-06
 -1       228-4.79348E-09-1.80094E-03-1.22164E-05
 -1       229 4.99455E-07-1.79908E-03-9.93630E-06
 -1       230-4.50226E-09-1.81441E-03 3.03395E-04
 -1       231-6.55861E-09-2.51750E-03-1.08413E-05
 -1       232-8.87078E-09-3.18808E-03-2.98884E-04
 -1       233-3.29898E-06-3.17718E-03-1.84150E-05
 -1       234-8.31493E-09-3.17845E-03-2.02875E-05
 -1       235 3.28243E-06-3.17718E-03-1.84136E-05
 -1       236-7.79340E-09-3.16372E-03 2.66735E-04
 -1       237-9.70469E-09-3.78065E-03-1.34965E-05
 -1       238-1.19307E-08-4.29522E-03-1.52605E-04
 -1       239 8.91201E-06-4.09203E-03-2.07651E-05
 -1       240-1.08450E-08-4.11779E-03-2.88618E-05
 -1       241-8.93337E-06-4.09203E-03-2.07646E-05
 -1       242-9.66734E-09-4.23871E-03 1.00751E-04
 -1       243-1.09623E-08-4.34204E-03-3.09271E-05
 -1       244-1.31353E-08-4.20358E-03-2.81837E-05
 -1       245-5.05973E-05-4.26982E-03-3.80900E-05
 -1       246-1.06462E-08-4.38965E-03-2.86905E-05
 -1       247 5.05762E-05-4.26982E-03-3.80909E-05
 -1       248-8.56055E-09-4.09107E-03-1.58282E-05
 -1       249-9.31762E-09-4.14802E-03-1.97388E-05
 -1       250-1.64038E-08-4.93644E-03 1.98732E-04
 -1       251 5.48365E-05-3.09494E-03-1.48335E-05
 -1       252-7.87577E-09-3.73302E-03-2.28660E-05
 -1       253-5.48499E-05-3.09492E-03-1.48363E-05
 -1       254 1.61272E-09-5.37874E-03-3.14716E-04
 -3
    1PSTEP                         2           2           1          
  100CL  102 5.00000E-03         201                     1    2           1
 -4  DISP        4    1
 -5  D1          1    2    1    0
 -5  D2          1    2    2    0
 -5  D3          1    2    3    0
 -5  ALL         1    2    0    0    1ALL
 -1         1 0.00000E+00 0.00000E+00 0.00000E+00
 -1         2 0.00000E+00 0.00000E+00 0.00000E+00
 -1         3 0.00000E+00 0.00000E+00 0.00000E+00
 -1         4 0.00000E+00 0.00000E+00 0.00000E+00
 -1         9 0.00000E+00 0.00000E+00 0.00000E+00
 -1        10 0.00000E+00 0.00000E+00 0.00000E+00
 -1        11 0.00000E+00 0.00000E+00 0.00000E+00
 -1        12 0.00000E+00 0.00000E+00 0.00000E+00
 -1        13 0.00000E+00 0.00000E+00 0.00000E+00
 -1        14 0.00000E+00 0.00000E+00 0.00000E+00
 -1        15 0.00000E+00 0.00000E+00 0.00000E+00
 -1        16 0.00000E+00 0.00000E+00 0.00000E+00
 -1        17 0.00000E+00 0.00000E+00 0.00000E+00
 -1        18 0.00000E+00 0.00000E+00 0.00000E+00
 -1        19 0.00000E+00 0.00000E+00 0.00000E+00
 -1        20 0.00000E+00 0.00000E+00 0.00000E+00
 -1        33-7.96278E-06 2.17678E-05 2.65071E-05
 -1        34-3.44547E-06 6.66909E-05 4.67834E-05
 -1        35-2.87891E-06 1.33212E-04 6.06208E-05
 -1        36-1.89909E-06 2.07195E-04 6.51439E-05
 -1        37 4.09874E-06 2.90345E-04 6.26461E-05
 -1        38 8.71411E-06 3.69977E-04 4.41146E-05
 -1        39 4.17578E-06 4.13068E-04 3.22812E-05
 -1        40-1.03595E-05 4.55953E-04 3.32812E-07
 -1        41 3.12472E-05 4.91796E-04-1.48393E-05
 -1        42 3.69669E-05 4.56028E-04-1.13289E-04
 -1        43-2.11510E-05 3.49815E-04-8.45711E-05
 -1        44-3.70568E-04 1.68158E-04-7.49363E-05
 -1        51 3.70509E-04 1.68246E-04-7.49345E-05
 -1        52 2.11094E-05 3.49825E-04-8.45694E-05
 -1        53-3.69534E-05 4.56022E-04-1.13284E-04
 -1        54-3.12549E-05 4.91788E-04-1.48457E-05
 -1        55 1.03601E-05 4.55953E-04 3.31033E-07
 -1        56-4.18123E-06 4.13066E-04 3.22794E-05
 -1        57-8.71118E-06 3.69975E-04 4.41140E-05
 -1        58-4.09939E-06 2.90342E-04 6.26445E-05
 -1        59 1.90083E-06 2.07193E-04 6.51433E-05
 -1        60 2.87920E-06 1.33211E-04 6.06203E-05
 -1        61 3.44662E-06 6.66902E-05 4.67833E-05
 -1        62 7.96305E-06 2.17674E-05 2.65069E-05
 -1        63 9.01091E-06 2.33220E-05-2.95880E-05
 -1        64 3.58780E-06 6.71848E-05-5.33899E-05
 -1        65 5.01349E-06 1.33618E-04-6.98854E-05
 -1        66 2.15461E-06 2.01394E-04-7.74906E-05
 -1        67-4.40901E-06 2.99166E-04-7.78487E-05
 -1        68-1.47415E-05 3.69488E-04-6.66468E-05
 -1        69 1.09262E-05 4.03105E-04-5.61955E-05
 -1        70 3.22439E-05 3.73866E-04-2.30650E-05
 -1        71-7.91874E-05 6.03340E-04-1.27968E-05
 -1        72-1.90334E-04 6.93827E-04 5.17843E-05
 -1        73 2.71713E-04-3.23042E-05 1.08072E-05
 -1        74 6.30752E-04-6.93362E-04 3.33798E-05
 -1        78-9.01132E-06 2.33217E-05-2.95881E-05