    1C
    1UUSER                                                              
    1UDATE              11.july.2018                                    
    1UTIME              16:36:00                                        
    1UHOST                                                              
    1UPGM               CalculiX                                        
    1UVERSION           Version 2.13                             
    1UCOMPILETIME       jue jun 14 00:40:39 CEST 2018                    
    1UDIR                                                               
    1UDBN                                                               
    1UMAT    1EL                                                        
    2C                            81                                     1
 -1         5 0.00000E+00 0.00000E+00 8.00000E+00
 -1         6 1.00000E+00 0.00000E+00 8.00000E+00
 -1         7 1.00000E+00 1.00000E+00 8.00000E+00
 -1         8 0.00000E+00 1.00000E+00 8.00000E+00
 -1        21 2.50000E-01 0.00000E+00 8.00000E+00
 -1        22 5.00000E-01 0.00000E+00 8.00000E+00
 -1        23 7.50000E-01 0.00000E+00 8.00000E+00
 -1        24 1.00000E+00 2.50000E-01 8.00000E+00
 -1        25 1.00000E+00 5.00000E-01 8.00000E+00
 -1        26 1.00000E+00 7.50000E-01 8.00000E+00
 -1        27 7.50000E-01 1.00000E+00 8.00000E+00
 -1        28 5.00000E-01 1.00000E+00 8.00000E+00
 -1        29 2.50000E-01 1.00000E+00 8.00000E+00
 -1        30 0.00000E+00 7.50000E-01 8.00000E+00
 -1        31 0.00000E+00 5.00000E-01 8.00000E+00
 -1        32 0.00000E+00 2.50000E-01 8.00000E+00
 -1        44 1.00000E+00 0.00000E+00 6.00000E+00
 -1        45 1.00000E+00 0.00000E+00 6.50000E+00
 -1        46 1.00000E+00 0.00000E+00 7.00000E+00
 -1        47 1.00000E+00 0.00000E+00 7.50000E+00
 -1        48 0.00000E+00 0.00000E+00 7.50000E+00
 -1        49 0.00000E+00 0.00000E+00 7.00000E+00
 -1        50 0.00000E+00 0.00000E+00 6.50000E+00
 -1        51 0.00000E+00 0.00000E+00 6.00000E+00
 -1        74 1.00000E+00 1.00000E+00 6.00000E+00
 -1        75 1.00000E+00 1.00000E+00 6.50000E+00
 -1        76 1.00000E+00 1.00000E+00 7.00000E+00
 -1        77 1.00000E+00 1.00000E+00 7.50000E+00
 -1        89 0.00000E+00 1.00000E+00 6.00000E+00
 -1        90 0.00000E+00 1.00000E+00 6.50000E+00
 -1        91 0.00000E+00 1.00000E+00 7.00000E+00
 -1        92 0.00000E+00 1.00000E+00 7.50000E+00
 -1        98 5.00000E-01 2.50000E-01 8.00000E+00
 -1        99 2.50000E-01 5.00000E-01 8.00000E+00
 -1       100 5.00000E-01 5.00000E-01 8.00000E+00
 -1       101 7.50000E-01 5.00000E-01 8.00000E+00
 -1       102 5.00000E-01 7.50000E-01 8.00000E+00
 -1       124 2.50000E-01 0.00000E+00 6.00000E+00
 -1       125 5.00000E-01 0.00000E+00 6.00000E+00
 -1       126 7.50000E-01 0.00000E+00 6.00000E+00
 -1       127 5.00000E-01 0.00000E+00 6.50000E+00
 -1       128 2.50000E-01 0.00000E+00 7.00000E+00
 -1       129 5.00000E-01 0.00000E+00 7.00000E+00
 -1       130 7.50000E-01 0.00000E+00 7.00000E+00
 -1       131 5.00000E-01 0.00000E+00 7.50000E+00
 -1       153 1.00000E+00 2.50000E-01 6.00000E+00
 -1       154 1.00000E+00 5.00000E-01 6.00000E+00
 -1       155 1.00000E+00 7.50000E-01 6.00000E+00
 -1       156 1.00000E+00 5.00000E-01 6.50000E+00
 -1       157 1.00000E+00 2.50000E-01 7.00000E+00
 -1       158 1.00000E+00 5.00000E-01 7.00000E+00
 -1       159 1.00000E+00 7.50000E-01 7.00000E+00
 -1       160 1.00000E+00 5.00000E-01 7.50000E+00
 -1       182 7.50000E-01 1.00000E+00 6.00000E+00
 -1       183 5.00000E-01 1.00000E+00 6.00000E+00
 -1       184 2.50000E-01 1.00000E+00 6.00000E+00
 -1       185 5.00000E-01 1.00000E+00 6.50000E+00
 -1       186 7.50000E-01 1.00000E+00 7.00000E+00
 -1       187 5.00000E-01 1.00000E+00 7.00000E+00
 -1       188 2.50000E-01 1.00000E+00 7.00000E+00
 -1       189 5.00000E-01 1.00000E+00 7.50000E+00
 -1       211 0.00000E+00 7.50000E-01 6.00000E+00
 -1       212 0.00000E+00 5.00000E-01 6.00000E+00
 -1       213 0.00000E+00 2.50000E-01 6.00000E+00
 -1       214 0.00000E+00 5.00000E-01 6.50000E+00
 -1       215 0.00000E+00 7.50000E-01 7.00000E+00
 -1       216 0.00000E+00 5.00000E-01 7.00000E+00
 -1       217 0.00000E+00 2.50000E-01 7.00000E+00
 -1       218 0.00000E+00 5.00000E-01 7.50000E+00
 -1       250 5.00000E-01 2.50000E-01 6.00000E+00
 -1       251 2.50000E-01 5.00000E-01 6.00000E+00
 -1       252 5.00000E-01 5.00000E-01 6.00000E+00
 -1       253 7.50000E-01 5.00000E-01 6.00000E+00
 -1       254 5.00000E-01 7.50000E-01 6.00000E+00
 -1       255 5.00000E-01 5.00000E-01 6.50000E+00
 -1       256 5.00000E-01 2.50000E-01 7.00000E+00
 -1       257 2.50000E-01 5.00000E-01 7.00000E+00
 -1       258 5.00000E-01 5.00000E-01 7.00000E+00
 -1       259 7.50000E-01 5.00000E-01 7.00000E+00
 -1       260 5.00000E-01 7.50000E-01 7.00000E+00
 -1       261 5.00000E-01 5.00000E-01 7.50000E+00
 -3
    3C                             8                                     1
 -1        25    4    0    1
 -2        51       125       252       212        49       129       258       216       124       250
 -2       251       213        50       127       255       214       128       256       257       217
 -1        26    4    0    1
 -2       125        44       154       252       129        46       158       258       126       153
 -2       253       250       127        45       156       255       130       157       259       256
 -1        27    4    0    1
 -2       212       252       183        89       216       258       187        91       251       254
 -2       184       211       214       255       185        90       257       260       188       215
 -1        28    4    0    1
 -2       252       154        74       183       258       158        76       187       253       155
 -2       182       254       255       156        75       185       259       159       186       260
 -1        29    4    0    1
 -2        49       129       258       216         5        22       100        31       128       256
 -2       257       217        48       131       261       218        21        98        99        32
 -1        30    4    0    1
 -2       129        46       158       258        22         6        25       100       130       157
 -2       259       256       131        47       160       261        23        24       101        98
 -1        31    4    0    1
 -2       216       258       187        91        31       100        28         8       257       260
 -2       188       215       218       261       189        92        99       102        29        30
 -1        32    4    0    1
 -2       258       158        76       187       100        25         7        28       259       159
 -2       186       260       261       160        77       189       101        26        27       102
 -3
    1PSTEP                         1           1           1          
  100CL  101 2.50000E-03          81                     1    1           1
 -4  DISP        4    1
 -5  D1          1    2    1    0
 -5  D2          1    2    2    0
 -5  D3          1    2    3    0
 -5  ALL         1    2    0    0    1ALL
 -1         5 0.00000E+00 0.00000E+00 0.00000E+00
 -1         6 0.00000E+00 0.00000E+00 0.00000E+00
 -1         7 0.00000E+00 0.00000E+00 0.00000E+00
 -1         8 0.00000E+00 0.00000E+00 0.00000E+00
 -1        21 0.00000E+00 0.00000E+00 0.00000E+00
 -1        22 0.00000E+00 0.00000E+00 0.00000E+00
 -1        23 0.00000E+00 0.00000E+00 0.00000E+00
 -1        24 0.00000E+00 0.00000E+00 0.00000E+00
 -1        25 0.00000E+00 0.00000E+00 0.00000E+00
 -1        26 0.00000E+00 0.00000E+00 0.00000E+00
 -1        27 0.00000E+00 0.00000E+00 0.00000E+00
 -1        28 0.00000E+00 0.00000E+00 0.00000E+00
 -1        29 0.00000E+00 0.00000E+00 0.00000E+00
 -1        30 0.00000E+00 0.00000E+00 0.00000E+00
 -1        31 0.00000E+00 0.00000E+00 0.00000E+00
 -1        32 0.00000E+00 0.00000E+00 0.00000E+00
 -1        44-1.74869E-04-4.18263E-03 5.27292E-04
 -1        45 6.54208E-05-3.05494E-03 9.42041E-04
 -1        46-4.50644E-05-2.12828E-03 1.15232E-03
 -1        47 1.61329E-04-7.85819E-04 6.38146E-04
 -1        48-1.61329E-04-7.85820E-04 6.38146E-04
 -1        49 4.50651E-05-2.12828E-03 1.15232E-03
 -1        50-6.54182E-05-3.05494E-03 9.42041E-04
 -1        51 1.74878E-04-4.18263E-03 5.27290E-04
 -1        74 5.95182E-04-5.57370E-03-5.94385E-04
 -1        75 3.15171E-04-3.66433E-03-9.42633E-04
 -1        76-1.90765E-04-1.83850E-03-1.15428E-03
 -1        77-2.79016E-04-5.67267E-04-6.59760E-04
 -1        89-5.95183E-04-5.57370E-03-5.94383E-04
 -1        90-3.15169E-04-3.66433E-03-9.42632E-04
 -1        91 1.90763E-04-1.83850E-03-1.15428E-03
 -1        92 2.79015E-04-5.67268E-04-6.59760E-04
 -1        98 0.00000E+00 0.00000E+00 0.00000E+00
 -1        99 0.00000E+00 0.00000E+00 0.00000E+00
 -1       100 0.00000E+00 0.00000E+00 0.00000E+00
 -1       101 0.00000E+00 0.00000E+00 0.00000E+00
 -1       102 0.00000E+00 0.00000E+00 0.00000E+00
 -1       124 2.00132E-04-3.52855E-03 5.06420E-04
 -1       125 1.78885E-09-4.26777E-03 5.28493E-04
 -1       126-2.00126E-04-3.52855E-03 5.06420E-04
 -1       127 9.06939E-10-3.03184E-03 1.09155E-03
 -1       128-1.08879E-05-2.33116E-03 1.13202E-03
 -1       129 6.62935E-10-2.16897E-03 1.11686E-03
 -1       130 1.08888E-05-2.33116E-03 1.13202E-03
 -1       131 2.45721E-10-8.72368E-04 6.62743E-04
 -1       153 1.78079E-04-4.24071E-03 2.22084E-04
 -1       154-1.58840E-04-2.71339E-03-3.00331E-05
 -1       155-1.90320E-04-4.65154E-03-2.90140E-04
 -1       156-1.70060E-04-3.30754E-03-9.53105E-05
 -1       157-4.62148E-05-1.77633E-03 4.72347E-04
 -1       158 1.23101E-04-1.84628E-03-4.31216E-05
 -1       159 8.85147E-05-1.71864E-03-4.99186E-04
 -1       160 5.66256E-05-7.92980E-04 6.99708E-06
 -1       182 2.05006E-04-2.94077E-03-5.66534E-04
 -1       183 4.18649E-10-5.37060E-03-5.69759E-04
 -1       184-2.05006E-04-2.94077E-03-5.66535E-04
 -1       185-1.07420E-09-3.41447E-03-1.04483E-03
 -1       186-7.22668E-05-2.63544E-03-1.18237E-03
 -1       187 6.41011E-10-2.19670E-03-1.14712E-03
 -1       188 7.22664E-05-2.63544E-03-1.18237E-03
 -1       189-1.70381E-10-8.51760E-04-6.74780E-04
 -1       211 1.90316E-04-4.65154E-03-2.90138E-04
 -1       212 1.58845E-04-2.71340E-03-3.00317E-05
 -1       213-1.78076E-04-4.24072E-03 2.22080E-04
 -1       214 1.70062E-04-3.30755E-03-9.53109E-05
 -1       215-8.85146E-05-1.71864E-03-4.99186E-04
 -1       216-1.23101E-04-1.84628E-03-4.31221E-05
 -1       217 4.62160E-05-1.77633E-03 4.72347E-04
 -1       218-5.66259E-05-7.92981E-04 6.99703E-06
 -1       250 1.34613E-09-4.93946E-03 1.98628E-04
 -1       251 5.93038E-05-3.09549E-03-1.50245E-05
 -1       252-1.37341E-09-3.73200E-03-2.30914E-05
 -1       253-5.93034E-05-3.09549E-03-1.50261E-05
 -1       254 9.03434E-10-5.37442E-03-3.14779E-04
 -1       255 1.74337E-10-3.04842E-03-4.61099E-05
 -1       256 9.55539E-11-1.91908E-03 4.64056E-04
 -1       257-6.22262E-05-2.05652E-03-1.73743E-05
 -1       258 1.03965E-10-2.17311E-03-2.11435E-05
 -1       259 6.22263E-05-2.05652E-03-1.73738E-05
 -1       260 3.86665E-11-1.95146E-03-4.97126E-04
 -1       261 2.31965E-10-8.56792E-04-2.66439E-06
 -3
    1PSTEP                         2           2           1          
  100CL  102 5.00000E-03          81                     1    2           1
 -4  DISP        4    1
 -5  D1          1    2    1    0
 -5  D2          1    2    2    0
 -5  D3          1    2    3    0
 -5  ALL         1    2    0    0    1ALL
 -1         5 0.00000E+00 0.00000E+00 0.00000E+00
 -1         6 0.00000E+00 0.00000E+00 0.00000E+00
 -1         7 0.00000E+00 0.00000E+00 0.00000E+00
 -1         8 0.00000E+00 0.00000E+00 0.00000E+00
 -1        21 0.00000E+00 0.00000E+00 0.00000E+00
 -1        22 0.00000E+00 0.00000E+00 0.00000E+00
 -1        23 0.00000E+00 0.00000E+00 0.00000E+00
 -1        24 0.00000E+00 0.00000E+00 0.00000E+00
 -1        25 0.00000E+00 0.00000E+00 0.00000E+00
 -1        26 0.00000E+00 0.00000E+00 0.00000E+00
 -1        27 0.00000E+00 0.00000E+00 0.00000E+00
 -1        28 0.00000E+00 0.00000E+00 0.00000E+00
 -1        29 0.00000E+00 0.00000E+00 0.00000E+00
 -1        30 0.00000E+00 0.00000E+00 0.00000E+00
 -1        31 0.00000E+00 0.00000E+00 0.00000E+00
 -1        32 0.00000E+00 0.00000E+00 0.00000E+00
 -1        44-3.70620E-04 1.68267E-04-7.49319E-05
 -1        45-1.98730E-05 2.51115E-04-6.35818E-05
 -1        46 4.35563E-05 2.49794E-04-2.72259E-05
 -1        47 7.43892E-06 1.48227E-04-9.22347E-05
 -1        48-7.43883E-06 1.48227E-04-9.22343E-05
 -1        49-4.35560E-05 2.49794E-04-2.72254E-05
 -1        50 1.98710E-05 2.51115E-04-6.35815E-05
 -1        51 3.70617E-04 1.68267E-04-7.49317E-05
 -1        74 6.31223E-04-6.93834E-04 3.33720E-05
 -1        75 2.55801E-04-1.26578E-04 6.32239E-05
 -1        76-1.89753E-04 4.29432E-04 2.60122E-05
 -1        77-8.03888E-05 2.83675E-04 7.88449E-05
 -1        89-6.31227E-04-6.93835E-04 3.33719E-05
 -1        90-2.55804E-04-1.26579E-04 6.32240E-05
 -1        91 1.89753E-04 4.29432E-04 2.60126E-05
 -1        92 8.03889E-05 2.83675E-04 7.88452E-05
 -1        98 0.00000E+00 0.00000E+00 0.00000E+00
 -1        99 0.00000E+00 0.00000E+00 0.00000E+00
 -1       100 0.00000E+00 0.00000E+00 0.00000E+00
 -1       101 0.00000E+00 0.00000E+00 0.00000E+00
 -1       102 0.00000E+00 0.00000E+00 0.00000E+00
 -1       124 1.33263E-04 3.52877E-04-6.46674E-05
 -1       125-9.31213E-10 3.90770E-04-6.96758E-05
 -1       126-1.33266E-04 3.52877E-04-6.46680E-05
 -1       127-9.96157E-11 3.55616E-04-3.93261E-05
 -1       128-1.27340E-05 2.01495E-04-9.39489E-05
 -1       129-5.61496E-10 1.82283E-04-1.18587E-04
 -1       130 1.27337E-05 2.01495E-04-9.39490E-05
 -1       131-6.33607E-11 1.03897E-04-6.30626E-05
 -1       153 3.27041E-04 6.63839E-04-4.08050E-05
 -1       154-9.83857E-05 1.23288E-03-1.85998E-05
 -1       155-3.34697E-04 4.09334E-04-1.35558E-06
 -1       156-1.05380E-04 3.64929E-04-5.90615E-05
 -1       157-7.20687E-05 2.60828E-04-2.64503E-05
 -1       158 7.62777E-05 2.46363E-04-2.67210E-05
 -1       159 9.82875E-05 2.96584E-04 9.82763E-06
 -1       160 3.50852E-05 3.72658E-05 4.33380E-06
 -1       182 1.36238E-04 7.17143E-04 2.74319E-05
 -1       183-9.40368E-10-2.92620E-04 4.41143E-05
 -1       184-1.36241E-04 7.17142E-04 2.74323E-05
 -1       185-2.32619E-10 1.18554E-04 6.83051E-05
 -1       186-5.07688E-05 1.29580E-05 6.27528E-05
 -1       187-6.84469E-10 1.65119E-04 9.98509E-05
 -1       188 5.07683E-05 1.29580E-05 6.27528E-05
 -1       189-1.27821E-10 1.16674E-04 5.56106E-05
 -1       211 3.34697E-04 4.09333E-04-1.35524E-06
 -1       212 9.83813E-05 1.23288E-03-1.85995E-05
 -1       213-3.27042E-04 6.63840E-04-4.08042E-05
 -1       214 1.05378E-04 3.64929E-04-5.90609E-05
 -1       215-9.82884E-05 2.96584E-04 9.82807E-06
 -1       216-7.62776E-05 2.46363E-04-2.67205E-05
 -1       217 7.20681E-05 2.60828E-04-2.64498E-05
 -1       218-3.50850E-05 3.72658E-05 4.33398E-06
 -1       250-1.24247E-09 2.15168E-04-5.40675E-05
 -1       251 3.66934E-05 1.56597E-04-9.30252E-06
 -1       252 3.04570E-10 3.34533E-04-1.43064E-05
 -1       253-3.66948E-05 1.56597E-04-9.30245E-06
 -1       254-1.37765E-09-5.44335E-05-1.78893E-05
 -1       255-3.07310E-10 4.72495E-04-2.85657E-05
 -1       256-2.13856E-10 1.54965E-04-6.83446E-05
 -1       257-3.85493E-05 2.95062E-04-1.07617E-05
 -1       258-3.29455E-10 4.64176E-05-1.30969E-05
 -1       259 3.85489E-05 2.95062E-04-1.07621E-05
 -1       260-2.44888E-10 1.34924E-04 4.78584E-05
 -1       261-1.94745E-10 6.70191E-05-1.65080E-06
 -3
    1PSTEP                         3           3           1          
  100CL  103 7.50000E-03          81                     1    3           1
 -4  DISP        4    1
 -5  D1          1    2    1    0
 -5  D2          1    2    2    0
 -5  D3          1    2    3    0
 -5  ALL         1    2    0    0    1ALL
 -1         5 0.00000E+00 0.00000E+00 0.00000E+00
 -1         6 0.00000E+00 0.00000E+00 0.00000E+00
 -1         7 0.00000E+00 0.00000E+00 0.00000E+00
 -1         8 0.00000E+00 0.00000E+00 0.00000E+00
 -1        21 0.00000E+00 0.00000E+00 0.00000E+00
 -1        22 0.00000E+00 0.00000E+00 0.00000E+00
 -1        23 0.00000E+00 0.00000E+00 0.00000E+00
 -1        24 0.00000E+00 0.00000E+00 0.00000E+00
 -1        25 0.00000E+00 0.00000E+00 0.00000E+00
 -1        26 0.00000E+00 0.00000E+00 0.00000E+00
 -1        27 0.00000E+00 0.00000E+00 0.00000E+00
 -1        28 0.00000E+00 0.00000E+00 0.00000E+00
 -1        29 0.00000E+00 0.00000E+00 0.00000E+00
 -1        30 0.00000E+00 0.00000E+00 0.00000E+00
 -1        31 0.00000E+00 0.00000E+00 0.00000E+00
 -1        32 0.00000E+00 0.00000E+00 0.00000E+00
 -1        44 1.11915E-05-1.99445E-03 2.64878E-04
 -1        45 3.55092E-05-1.48885E-03 4.55643E-04
 -1        46-3.19477E-05-1.05600E-03 5.44694E-04
 -1        47 7.34432E-05-4.03924E-04 3.20970E-04
 -1        48-7.34438E-05-4.03923E-04 3.20970E-04
 -1        49 3.19474E-05-1.05600E-03 5.44693E-04
 -1        50-3.55062E-05-1.48886E-03 4.55643E-04
 -1        51-1.11828E-05-1.99445E-03 2.64876E-04
 -1        74 1.19665E-04-2.42788E-03-2.85788E-04
 -1        75 8.30341E-05-1.67871E-03-4.55824E-04
 -1        76-4.15189E-05-9.65712E-04-5.45305E-04
 -1        77-1.10101E-04-3.35828E-04-3.27706E-04
 -1        89-1.19663E-04-2.42788E-03-2.85788E-04
 -1        90-8.30323E-05-1.67871E-03-4.55825E-04
 -1        91 4.15193E-05-9.65712E-04-5.45307E-04
 -1        92 1.10101E-04-3.35828E-04-3.27707E-04
 -1        98 0.00000E+00 0.00000E+00 0.00000E+00
 -1        99 0.00000E+00 0.00000E+00 0.00000E+00
 -1       100 0.00000E+00 0.00000E+00 0.00000E+00
 -1       101 0.00000E+00 0.00000E+00 0.00000E+00
 -1       102 0.00000E+00 0.00000E+00 0.00000E+00
 -1       124 6.01002E-05-1.73542E-03 2.52565E-04
 -1       125-3.59713E-10-2.08993E-03 2.64124E-04
 -1       126-6.00967E-05-1.73542E-03 2.52566E-04
 -1       127 6.28521E-10-1.50423E-03 5.19362E-04
 -1       128-1.90439E-06-1.13859E-03 5.51930E-04
 -1       129 1.30289E-10-1.05808E-03 5.51026E-04
 -1       130 1.90445E-06-1.13859E-03 5.51931E-04
 -1       131 2.02493E-10-4.33222E-04 3.25144E-04
 -1       153 1.20638E-06-2.14579E-03 1.13873E-04
 -1       154-4.95369E-05-1.57538E-03-9.35934E-06
 -1       155-4.96992E-06-2.27372E-03-1.35086E-04
 -1       156-5.30033E-05-1.63531E-03-2.96978E-05
 -1       157-3.51818E-06-8.94449E-04 2.27105E-04
 -1       158 3.83732E-05-9.23477E-04-1.34366E-05
 -1       159 1.66907E-05-8.76494E-04-2.35469E-04
 -1       160 1.76489E-05-3.79465E-04 2.18112E-06
 -1       182 6.15020E-05-1.55227E-03-2.71301E-04
 -1       183-1.16169E-09-2.43362E-03-2.76983E-04
 -1       184-6.15015E-05-1.55227E-03-2.71302E-04
 -1       185 3.09363E-10-1.62350E-03-5.04816E-04
 -1       186-2.10079E-05-1.23341E-03-5.67624E-04
 -1       187 3.83111E-10-1.06673E-03-5.60465E-04
 -1       188 2.10083E-05-1.23341E-03-5.67624E-04
 -1       189 1.84593E-10-4.26795E-04-3.28896E-04
 -1       211 4.97187E-06-2.27372E-03-1.35087E-04
 -1       212 4.95407E-05-1.57537E-03-9.35998E-06
 -1       213-1.20695E-06-2.14579E-03 1.13873E-04
 -1       214 5.30053E-05-1.63531E-03-2.96986E-05
 -1       215-1.66901E-05-8.76494E-04-2.35470E-04
 -1       216-3.83731E-05-9.23477E-04-1.34370E-05
 -1       217 3.51972E-06-8.94449E-04 2.27104E-04
 -1       218-1.76488E-05-3.79465E-04 2.18085E-06
 -1       250 9.14606E-10-2.35950E-03 1.06245E-04
 -1       251 1.84556E-05-1.48406E-03-4.68270E-06
 -1       252 1.13913E-09-1.82584E-03-7.19838E-06
 -1       253-1.84522E-05-1.48406E-03-4.68257E-06
 -1       254 1.58327E-09-2.49513E-03-1.42445E-04
 -1       255 2.98768E-10-1.54128E-03-1.43717E-05
 -1       256 2.37709E-10-9.34588E-04 2.33728E-04
 -1       257-1.93869E-05-1.03384E-03-5.41554E-06
 -1       258 6.14240E-10-1.02596E-03-6.58964E-06
 -1       259 1.93875E-05-1.03384E-03-5.41530E-06
 -1       260 1.28271E-10-9.44662E-04-2.44034E-04
 -1       261 1.26900E-10-4.16707E-04-8.30557E-07
 -3
    1PSTEP                         4           4           1          
  100CL  104 1.00000E-02          81                     1    4           1
 -4  DISP        4    1
 -5  D1          1    2    1    0
 -5  D2          1    2    2    0
 -5  D3          1    2    3    0
 -5  ALL         1    2    0    0    1ALL
 -1         5 0.00000E+00 0.00000E+00 0.00000E+00
 -1         6 0.00000E+00 0.00000E+00 0.00000E+00
 -1         7 0.00000E+00 0.00000E+00 0.00000E+00
 -1         8 0.00000E+00 0.00000E+00 0.00000E+00
 -1        21 0.00000E+00 0.00000E+00 0.00000E+00
 -1        22 0.00000E+00 0.00000E+00 0.00000E+00
 -1        23 0.00000E+00 0.00000E+00 0.00000E+00
 -1        24 0.00000E+00 0.00000E+00 0.00000E+00
 -1        25 0.00000E+00 0.00000E+00 0.00000E+00
 -1        26 0.00000E+00 0.00000E+00 0.00000E+00
 -1        27 0.00000E+00 0.00000E+00 0.00000E+00
 -1        28 0.00000E+00 0.00000E+00 0.00000E+00
 -1        29 0.00000E+00 0.00000E+00 0.00000E+00
 -1        30 0.00000E+00 0.00000E+00 0.00000E+00
 -1        31 0.00000E+00 0.00000E+00 0.00000E+00
 -1        32 0.00000E+00 0.00000E+00 0.00000E+00
 -1        44-9.39977E-05 9.88830E-04-1.43882E-04
 -1        45-2.16406E-05 7.68162E-04-2.31908E-04
 -1        46 2.56148E-05 5.61977E-04-2.65562E-04
 -1        47-3.31478E-05 2.27557E-04-1.74715E-04
 -1        48 3.31437E-05 2.27561E-04-1.74714E-04
 -1        49-2.56231E-05 5.61983E-04-2.65560E-04
 -1        50 2.16486E-05 7.68150E-04-2.31905E-04
 -1        51 9.40239E-05 9.88797E-04-1.43881E-04
 -1        74 9.40621E-05 9.88701E-04 1.43883E-04
 -1        75 2.16862E-05 7.68101E-04 2.31911E-04
 -1        76-2.56408E-05 5.62011E-04 2.65565E-04
 -1        77 3.31342E-05 2.27575E-04 1.74714E-04
 -1        89-9.40764E-05 9.88698E-04 1.43883E-04
 -1        90-2.16909E-05 7.68100E-04 2.31911E-04
 -1        91 2.56410E-05 5.62010E-04 2.65563E-04
 -1        92-3.31349E-05 2.27576E-04 1.74715E-04
 -1        98 0.00000E+00 0.00000E+00 0.00000E+00
 -1        99 0.00000E+00 0.00000E+00 0.00000E+00
 -1       100 0.00000E+00 0.00000E+00 0.00000E+00
 -1       101 0.00000E+00 0.00000E+00 0.00000E+00
 -1       102 0.00000E+00 0.00000E+00 0.00000E+00
 -1       124 3.30254E-06 9.09734E-04-1.35568E-04
 -1       125-7.78241E-09 1.08746E-03-1.42266E-04
 -1       126-3.30650E-06 9.09722E-04-1.35568E-04
 -1       127-6.29004E-10 8.00488E-04-2.56407E-04
 -1       128-2.14353E-06 5.89709E-04-2.84969E-04
 -1       129-2.30966E-09 5.46803E-04-2.90435E-04
 -1       130 2.13937E-06 5.89713E-04-2.84970E-04
 -1       131 1.65994E-10 2.30882E-04-1.69719E-04
 -1       153 7.76789E-05 1.17937E-03-6.39099E-05
 -1       154-6.27050E-09 1.04417E-03 7.60430E-10
 -1       155-7.76987E-05 1.17931E-03 6.39098E-05
 -1       156-1.45789E-08 8.65033E-04-5.10169E-09
 -1       157-1.55724E-05 4.87780E-04-1.14335E-04
 -1       158 5.56340E-09 4.98135E-04-3.27880E-09
 -1       159 1.55741E-05 4.87795E-04 1.14335E-04
 -1       160 3.21555E-09 1.89383E-04-1.77371E-10
 -1       182 3.32454E-06 9.09781E-04 1.35570E-04
 -1       183-1.35905E-08 1.08739E-03 1.42268E-04
 -1       184-3.34496E-06 9.09773E-04 1.35570E-04
 -1       185-8.74137E-10 8.00474E-04 2.56418E-04
 -1       186-2.15300E-06 5.89701E-04 2.84970E-04
 -1       187-1.96180E-09 5.46822E-04 2.90439E-04
 -1       188 2.15110E-06 5.89703E-04 2.84970E-04
 -1       189 1.77004E-10 2.30888E-04 1.69720E-04
 -1       211 7.77020E-05 1.17932E-03 6.39116E-05
 -1       212 7.96324E-10 1.04419E-03 2.04071E-09
 -1       213-7.76943E-05 1.17937E-03-6.39083E-05
 -1       214 8.62929E-09 8.65034E-04-3.81859E-09
 -1       215-1.55768E-05 4.87795E-04 1.14336E-04
 -1       216-5.21165E-09 4.98135E-04-9.78049E-10
 -1       217 1.55743E-05 4.87782E-04-1.14333E-04
 -1       218-2.79402E-09 1.89383E-04 1.59009E-10
 -1       250-1.74911E-09 1.17363E-03-6.34548E-05
 -1       251 1.52016E-08 7.43230E-04 2.10354E-09
 -1       252 1.99145E-09 9.48346E-04 7.19709E-10
 -1       253-1.20574E-08 7.43235E-04 1.30116E-09
 -1       254-1.58744E-09 1.17362E-03 6.34563E-05
 -1       255-2.78853E-09 8.46058E-04-1.30517E-10
 -1       256-1.01958E-09 4.81538E-04-1.27509E-04
 -1       257-5.02617E-09 5.62270E-04 1.27012E-09
 -1       258 7.98802E-10 4.99029E-04 6.27302E-10
 -1       259 5.09699E-09 5.62268E-04 7.79161E-11
 -1       260-1.51388E-09 4.81539E-04 1.27510E-04
 -1       261-1.85917E-10 2.14213E-04-3.01902E-10
 -3
    1PSTEP                         5           5           1          
  100CL  105 1.25000E-02          81                     1    5           1
 -4  DISP        4    1
 -5  D1          1    2    1    0
 -5  D2          1    2    2    0
 -5  D3          1    2    3    0
 -5  ALL         1    2    0    0    1ALL
 -1         5 0.00000E+00 0.00000E+00 0.00000E+00
 -1         6 0.00000E+00 0.00000E+00 0.00000E+00
 -1         7 0.00000E+00 0.00000E+00 0.00000E+00
 -1         8 0.00000E+00 0.00000E+00 0.00000E+00
 -1        21 0.00000E+00 0.00000E+00 0.00000E+00
 -1        22 0.00000E+00 0.00000E+00 0.00000E+00
 -1        23 0.00000E+00 0.00000E+00 0.00000E+00
 -1        24 0.00000E+00 0.00000E+00 0.00000E+00
 -1        25 0.00000E+00 0.00000E+00 0.00000E+00
 -1        26 0.00000E+00 0.00000E+00 0.00000E+00
 -1        27 0.00000E+00 0.00000E+00 0.00000E+00
 -1        28 0.00000E+00 0.00000E+00 0.00000E+00
 -1        29 0.00000E+00 0.00000E+00 0.00000E+00
 -1        30 0.00000E+00 0.00000E+00 0.00000E+00
 -1        31 0.00000E+00 0.00000E+00 0.00000E+00
 -1        32 0.00000E+00 0.00000E+00 0.00000E+00
 -1        44 7.09229E-05-7.46527E-04 1.08599E-04
 -1        45 1.63162E-05-5.79900E-04 1.75076E-04
 -1        46-1.93249E-05-4.24232E-04 2.00473E-04
 -1        47 2.50291E-05-1.71776E-04 1.31894E-04
 -1        48-2.50068E-05-1.71797E-04 1.31890E-04
 -1        49 1.93648E-05-4.24262E-04 2.00469E-04
 -1        50-1.63686E-05-5.79842E-04 1.75060E-04
 -1        51-7.10684E-05-7.46350E-04 1.08598E-04
 -1        74-7.10331E-05-7.46336E-04-1.08598E-04
 -1        75-1.63779E-05-5.79821E-04-1.75072E-04
 -1        76 1.93636E-05-4.24277E-04-2.00480E-04
 -1        77-2.50047E-05-1.71802E-04-1.31890E-04
 -1        89 7.10897E-05-7.46335E-04-1.08604E-04
 -1        90 1.63959E-05-5.79816E-04-1.75071E-04
 -1        91-1.93695E-05-4.24271E-04-2.00465E-04
 -1        92 2.50076E-05-1.71803E-04-1.31894E-04
 -1        98 0.00000E+00 0.00000E+00 0.00000E+00
 -1        99 0.00000E+00 0.00000E+00 0.00000E+00
 -1       100 0.00000E+00 0.00000E+00 0.00000E+00
 -1       101 0.00000E+00 0.00000E+00 0.00000E+00
 -1       102 0.00000E+00 0.00000E+00 0.00000E+00
 -1       124-2.48288E-06-6.86769E-04 1.02321E-04
 -1       125 5.44829E-08-8.20921E-04 1.07382E-04
 -1       126 2.51142E-06-6.86703E-04 1.02323E-04
 -1       127-2.63567E-09-6.04292E-04 1.93556E-04
 -1       128 1.62738E-06-4.45167E-04 2.15126E-04
 -1       129 1.20928E-08-4.12778E-04 2.19254E-04
 -1       130-1.60686E-06-4.45187E-04 2.15127E-04
 -1       131-1.69729E-09-1.74288E-04 1.28118E-04
 -1       153-5.86328E-05-8.90383E-04 4.82390E-05
 -1       154-1.24028E-09-7.88272E-04 1.73541E-09
 -1       155 5.86760E-05-8.90300E-04-4.82349E-05
 -1       156 1.81938E-08-6.53005E-04 4.60442E-09
 -1       157 1.17549E-05-3.68220E-04 8.63112E-05
 -1       158-5.21702E-09-3.76053E-04 6.24294E-09
 -1       159-1.17628E-05-3.68239E-04-8.63100E-05
 -1       160-3.61375E-09-1.42965E-04-1.92296E-10
 -1       182-2.49791E-06-6.86800E-04-1.02322E-04
 -1       183 7.02850E-08-8.20861E-04-1.07382E-04
 -1       184 2.57761E-06-6.86756E-04-1.02325E-04
 -1       185-9.02708E-10-6.04282E-04-1.93566E-04
 -1       186 1.63553E-06-4.45164E-04-2.15129E-04
 -1       187 1.10281E-08-4.12791E-04-2.19257E-04
 -1       188-1.62282E-06-4.45172E-04-2.15124E-04
 -1       189-1.87005E-09-1.74292E-04-1.28119E-04
 -1       211-5.86939E-05-8.90308E-04-4.82403E-05
 -1       212 4.36176E-09-7.88326E-04-4.13511E-09
 -1       213 5.87015E-05-8.90336E-04 4.82351E-05
 -1       214 1.56791E-09-6.53013E-04 4.00435E-09
 -1       215 1.17682E-05-3.68238E-04-8.63094E-05
 -1       216 9.26656E-10-3.76048E-04-1.86569E-09
 -1       217-1.17691E-05-3.68230E-04 8.63059E-05
 -1       218 8.01755E-10-1.42960E-04 4.84850E-10
 -1       250 1.44138E-09-8.85941E-04 4.78931E-05
 -1       251-3.53459E-08-5.61021E-04-2.24915E-09
 -1       252-2.41294E-08-7.15858E-04-3.26312E-10
 -1       253-7.85563E-09-5.61039E-04 4.43787E-10
 -1       254 7.05894E-09-8.85949E-04-4.78949E-05
 -1       255 1.26353E-08-6.38705E-04 4.76447E-10
 -1       256 4.84847E-09-3.63502E-04 9.62592E-05
 -1       257 1.76266E-09-4.24464E-04-2.80913E-09
 -1       258-8.62990E-09-3.76699E-04-3.56802E-10
 -1       259-7.67310E-09-4.24456E-04 1.80956E-09
 -1       260 4.62303E-09-3.63500E-04-9.62590E-05
 -1       261 5.14211E-10-1.61707E-04 8.53459E-11
 -3
    1PSTEP                         6           6           1          
  100CL  106 1.50000E-02          81                     1    6           1
 -4  DISP        4    1
 -5  D1          1    2    1    0
 -5  D2          1    2    2    0
 -5  D3          1    2    3    0
 -5  ALL         1    2    0    0    1ALL
 -1         5 0.00000E+00 0.00000E+00 0.00000E+00
 -1         6 0.00000E+00 0.00000E+00 0.00000E+00
 -1         7 0.00000E+00 0.00000E+00 0.00000E+00
 -1         8 0.00000E+00 0.00000E+00 0.00000E+00
 -1        21 0.00000E+00 0.00000E+00 0.00000E+00
 -1        22 0.00000E+00 0.00000E+00 0.00000E+00
 -1        23 0.00000E+00 0.00000E+00 0.00000E+00
 -1        24 0.00000E+00 0.00000E+00 0.00000E+00
 -1        25 0.00000E+00 0.00000E+00 0.00000E+00
 -1        26 0.00000E+00 0.00000E+00 0.00000E+00
 -1        27 0.00000E+00 0.00000E+00 0.00000E+00
 -1        28 0.00000E+00 0.00000E+00 0.00000E+00
 -1        29 0.00000E+00 0.00000E+00 0.00000E+00
 -1        30 0.00000E+00 0.00000E+00 0.00000E+00
 -1        31 0.00000E+00 0.00000E+00 0.00000E+00
 -1        32 0.00000E+00 0.00000E+00 0.00000E+00
 -1        44-5.14936E-05 5.41271E-04-7.87280E-05
 -1        45-1.18499E-05 4.20482E-04-1.26952E-04
 -1        46 1.40290E-05 3.07646E-04-1.45371E-04
 -1        47-1.81397E-05 1.24570E-04-9.56397E-05