    1C
    1UUSER                                                              
    1UDATE              11.july.2018                                    
    1UTIME              16:30:22                                        
    1UHOST                                                              
    1UPGM               CalculiX                                        
    1UVERSION           Version 2.13                             
    1UCOMPILETIME       jue jun 14 00:40:39 CEST 2018                    
    1UDIR                                                               
    1UDBN                                                               
    1UMAT    1EL                                                        
    2C                           201                                     1
 -1         1 0.00000E+00 0.00000E+00 0.00000E+00
 -1         2 1.00000E+00 0.00000E+00 0.00000E+00
 -1         3 1.00000E+00 1.00000E+00 0.00000E+00
 -1         4 0.00000E+00 1.00000E+00 0.00000E+00
 -1         9 2.50000E-01 0.00000E+00 0.00000E+00
 -1        10 5.00000E-01 0.00000E+00 0.00000E+00
 -1        11 7.50000E-01 0.00000E+00 0.00000E+00
 -1        12 1.00000E+00 2.50000E-01 0.00000E+00
 -1        13 1.00000E+00 5.00000E-01 0.00000E+00
 -1        14 1.00000E+00 7.50000E-01 0.00000E+00
 -1        15 7.50000E-01 1.00000E+00 0.00000E+00
 -1        16 5.00000E-01 1.00000E+00 0.00000E+00
 -1        17 2.50000E-01 1.00000E+00 0.00000E+00
 -1        18 0.00000E+00 7.50000E-01 0.00000E+00
 -1        19 0.00000E+00 5.00000E-01 0.00000E+00
 -1        20 0.00000E+00 2.50000E-01 0.00000E+00
 -1        33 1.00000E+00 0.00000E+00 5.00000E-01
 -1        34 1.00000E+00 0.00000E+00 1.00000E+00
 -1        35 1.00000E+00 0.00000E+00 1.50000E+00
 -1        36 1.00000E+00 0.00000E+00 2.00000E+00
 -1        37 1.00000E+00 0.00000E+00 2.50000E+00
 -1        38 1.00000E+00 0.00000E+00 3.00000E+00
 -1        39 1.00000E+00 0.00000E+00 3.50000E+00
 -1        40 1.00000E+00 0.00000E+00 4.00000E+00
 -1        41 1.00000E+00 0.00000E+00 4.50000E+00
 -1        42 1.00000E+00 0.00000E+00 5.00000E+00
 -1        43 1.00000E+00 0.00000E+00 5.50000E+00
 -1        44 1.00000E+00 0.00000E+00 6.00000E+00
 -1        51 0.00000E+00 0.00000E+00 6.00000E+00
 -1        52 0.00000E+00 0.00000E+00 5.50000E+00
 -1        53 0.00000E+00 0.00000E+00 5.00000E+00
 -1        54 0.00000E+00 0.00000E+00 4.50000E+00
 -1        55 0.00000E+00 0.00000E+00 4.00000E+00
 -1        56 0.00000E+00 0.00000E+00 3.50000E+00
 -1        57 0.00000E+00 0.00000E+00 3.00000E+00
 -1        58 0.00000E+00 0.00000E+00 2.50000E+00
 -1        59 0.00000E+00 0.00000E+00 2.00000E+00
 -1        60 0.00000E+00 0.00000E+00 1.50000E+00
 -1        61 0.00000E+00 0.00000E+00 1.00000E+00
 -1        62 0.00000E+00 0.00000E+00 5.00000E-01
 -1        63 1.00000E+00 1.00000E+00 5.00000E-01
 -1        64 1.00000E+00 1.00000E+00 1.00000E+00
 -1        65 1.00000E+00 1.00000E+00 1.50000E+00
 -1        66 1.00000E+00 1.00000E+00 2.00000E+00
 -1        67 1.00000E+00 1.00000E+00 2.50000E+00
 -1        68 1.00000E+00 1.00000E+00 3.00000E+00
 -1        69 1.00000E+00 1.00000E+00 3.50000E+00
 -1        70 1.00000E+00 1.00000E+00 4.00000E+00
 -1        71 1.00000E+00 1.00000E+00 4.50000E+00
 -1        72 1.00000E+00 1.00000E+00 5.00000E+00
 -1        73 1.00000E+00 1.00000E+00 5.50000E+00
 -1        74 1.00000E+00 1.00000E+00 6.00000E+00
 -1        78 0.00000E+00 1.00000E+00 5.00000E-01
 -1        79 0.00000E+00 1.00000E+00 1.00000E+00
 -1        80 0.00000E+00 1.00000E+00 1.50000E+00
 -1        81 0.00000E+00 1.00000E+00 2.00000E+00
 -1        82 0.00000E+00 1.00000E+00 2.50000E+00
 -1        83 0.00000E+00 1.00000E+00 3.00000E+00
 -1        84 0.00000E+00 1.00000E+00 3.50000E+00
 -1        85 0.00000E+00 1.00000E+00 4.00000E+00
 -1        86 0.00000E+00 1.00000E+00 4.50000E+00
 -1        87 0.00000E+00 1.00000E+00 5.00000E+00
 -1        88 0.00000E+00 1.00000E+00 5.50000E+00
 -1        89 0.00000E+00 1.00000E+00 6.00000E+00
 -1        93 5.00000E-01 2.50000E-01 0.00000E+00
 -1        94 2.50000E-01 5.00000E-01 0.00000E+00
 -1        95 5.00000E-01 5.00000E-01 0.00000E+00
 -1        96 7.50000E-01 5.00000E-01 0.00000E+00
 -1        97 5.00000E-01 7.50000E-01 0.00000E+00
 -1       103 5.00000E-01 0.00000E+00 5.00000E-01
 -1       104 2.50000E-01 0.00000E+00 1.00000E+00
 -1       105 5.00000E-01 0.00000E+00 1.00000E+00
 -1       106 7.50000E-01 0.00000E+00 1.00000E+00
 -1       107 5.00000E-01 0.00000E+00 1.50000E+00
 -1       108 2.50000E-01 0.00000E+00 2.00000E+00
 -1       109 5.00000E-01 0.00000E+00 2.00000E+00
 -1       110 7.50000E-01 0.00000E+00 2.00000E+00
 -1       111 5.00000E-01 0.00000E+00 2.50000E+00
 -1       112 2.50000E-01 0.00000E+00 3.00000E+00
 -1       113 5.00000E-01 0.00000E+00 3.00000E+00
 -1       114 7.50000E-01 0.00000E+00 3.00000E+00
 -1       115 5.00000E-01 0.00000E+00 3.50000E+00
 -1       116 2.50000E-01 0.00000E+00 4.00000E+00
 -1       117 5.00000E-01 0.00000E+00 4.00000E+00
 -1       118 7.50000E-01 0.00000E+00 4.00000E+00
 -1       119 5.00000E-01 0.00000E+00 4.50000E+00
 -1       120 2.50000E-01 0.00000E+00 5.00000E+00
 -1       121 5.00000E-01 0.00000E+00 5.00000E+00
 -1       122 7.50000E-01 0.00000E+00 5.00000E+00
 -1       123 5.00000E-01 0.00000E+00 5.50000E+00
 -1       124 2.50000E-01 0.00000E+00 6.00000E+00
 -1       125 5.00000E-01 0.00000E+00 6.00000E+00
 -1       126 7.50000E-01 0.00000E+00 6.00000E+00
 -1       132 1.00000E+00 5.00000E-01 5.00000E-01
 -1       133 1.00000E+00 2.50000E-01 1.00000E+00
 -1       134 1.00000E+00 5.00000E-01 1.00000E+00
 -1       135 1.00000E+00 7.50000E-01 1.00000E+00
 -1       136 1.00000E+00 5.00000E-01 1.50000E+00
 -1       137 1.00000E+00 2.50000E-01 2.00000E+00
 -1       138 1.00000E+00 5.00000E-01 2.00000E+00
 -1       139 1.00000E+00 7.50000E-01 2.00000E+00
 -1       140 1.00000E+00 5.00000E-01 2.50000E+00
 -1       141 1.00000E+00 2.50000E-01 3.00000E+00
 -1       142 1.00000E+00 5.00000E-01 3.00000E+00
 -1       143 1.00000E+00 7.50000E-01 3.00000E+00
 -1       144 1.00000E+00 5.00000E-01 3.50000E+00
 -1       145 1.00000E+00 2.50000E-01 4.00000E+00
 -1       146 1.00000E+00 5.00000E-01 4.00000E+00
 -1       147 1.00000E+00 7.50000E-01 4.00000E+00
 -1       148 1.00000E+00 5.00000E-01 4.50000E+00
 -1       149 1.00000E+00 2.50000E-01 5.00000E+00
 -1       150 1.00000E+00 5.00000E-01 5.00000E+00
 -1       151 1.00000E+00 7.50000E-01 5.00000E+00
 -1       152 1.00000E+00 5.00000E-01 5.50000E+00
 -1       153 1.00000E+00 2.50000E-01 6.00000E+00
 -1       154 1.00000E+00 5.00000E-01 6.00000E+00
 -1       155 1.00000E+00 7.50000E-01 6.00000E+00
 -1       161 5.00000E-01 1.00000E+00 5.00000E-01
 -1       162 7.50000E-01 1.00000E+00 1.00000E+00
 -1       163 5.00000E-01 1.00000E+00 1.00000E+00
 -1       164 2.50000E-01 1.00000E+00 1.00000E+00
 -1       165 5.00000E-01 1.00000E+00 1.50000E+00
 -1       166 7.50000E-01 1.00000E+00 2.00000E+00
 -1       167 5.00000E-01 1.00000E+00 2.00000E+00
 -1       168 2.50000E-01 1.00000E+00 2.00000E+00
 -1       169 5.00000E-01 1.00000E+00 2.50000E+00
 -1       170 7.50000E-01 1.00000E+00 3.00000E+00
 -1       171 5.00000E-01 1.00000E+00 3.00000E+00
 -1       172 2.50000E-01 1.00000E+00 3.00000E+00
 -1       173 5.00000E-01 1.00000E+00 3.50000E+00
 -1       174 7.50000E-01 1.00000E+00 4.00000E+00
 -1       175 5.00000E-01 1.00000E+00 4.00000E+00
 -1       176 2.50000E-01 1.00000E+00 4.00000E+00
 -1       177 5.00000E-01 1.00000E+00 4.50000E+00
 -1       178 7.50000E-01 1.00000E+00 5.00000E+00
 -1       179 5.00000E-01 1.00000E+00 5.00000E+00
 -1       180 2.50000E-01 1.00000E+00 5.00000E+00
 -1       181 5.00000E-01 1.00000E+00 5.50000E+00
 -1       182 7.50000E-01 1.00000E+00 6.00000E+00
 -1       183 5.00000E-01 1.00000E+00 6.00000E+00
 -1       184 2.50000E-01 1.00000E+00 6.00000E+00
 -1       190 0.00000E+00 5.00000E-01 5.00000E-01
 -1       191 0.00000E+00 7.50000E-01 1.00000E+00
 -1       192 0.00000E+00 5.00000E-01 1.00000E+00
 -1       193 0.00000E+00 2.50000E-01 1.00000E+00
 -1       194 0.00000E+00 5.00000E-01 1.50000E+00
 -1       195 0.00000E+00 7.50000E-01 2.00000E+00
 -1       196 0.00000E+00 5.00000E-01 2.00000E+00
 -1       197 0.00000E+00 2.50000E-01 2.00000E+00
 -1       198 0.00000E+00 5.00000E-01 2.50000E+00
 -1       199 0.00000E+00 7.50000E-01 3.00000E+00
 -1       200 0.00000E+00 5.00000E-01 3.00000E+00
 -1       201 0.00000E+00 2.50000E-01 3.00000E+00
 -1       202 0.00000E+00 5.00000E-01 3.50000E+00
 -1       203 0.00000E+00 7.50000E-01 4.00000E+00
 -1       204 0.00000E+00 5.00000E-01 4.00000E+00
 -1       205 0.00000E+00 2.50000E-01 4.00000E+00
 -1       206 0.00000E+00 5.00000E-01 4.50000E+00
 -1       207 0.00000E+00 7.50000E-01 5.00000E+00
 -1       208 0.00000E+00 5.00000E-01 5.00000E+00
 -1       209 0.00000E+00 2.50000E-01 5.00000E+00
 -1       210 0.00000E+00 5.00000E-01 5.50000E+00
 -1       211 0.00000E+00 7.50000E-01 6.00000E+00
 -1       212 0.00000E+00 5.00000E-01 6.00000E+00
 -1       213 0.00000E+00 2.50000E-01 6.00000E+00
 -1       219 5.00000E-01 5.00000E-01 5.00000E-01
 -1       220 5.00000E-01 2.50000E-01 1.00000E+00
 -1       221 2.50000E-01 5.00000E-01 1.00000E+00
 -1       222 5.00000E-01 5.00000E-01 1.00000E+00
 -1       223 7.50000E-01 5.00000E-01 1.00000E+00
 -1       224 5.00000E-01 7.50000E-01 1.00000E+00
 -1       225 5.00000E-01 5.00000E-01 1.50000E+00
 -1       226 5.00000E-01 2.50000E-01 2.00000E+00
 -1       227 2.50000E-01 5.00000E-01 2.00000E+00
 -1       228 5.00000E-01 5.00000E-01 2.00000E+00
 -1       229 7.50000E-01 5.00000E-01 2.00000E+00
 -1       230 5.00000E-01 7.50000E-01 2.00000E+00
 -1       231 5.00000E-01 5.00000E-01 2.50000E+00
 -1       232 5.00000E-01 2.50000E-01 3.00000E+00
 -1       233 2.50000E-01 5.00000E-01 3.00000E+00
 -1       234 5.00000E-01 5.00000E-01 3.00000E+00
 -1       235 7.50000E-01 5.00000E-01 3.00000E+00
 -1       236 5.00000E-01 7.50000E-01 3.00000E+00
 -1       237 5.00000E-01 5.00000E-01 3.50000E+00
 -1       238 5.00000E-01 2.50000E-01 4.00000E+00
 -1       239 2.50000E-01 5.00000E-01 4.00000E+00
 -1       240 5.00000E-01 5.00000E-01 4.00000E+00
 -1       241 7.50000E-01 5.00000E-01 4.00000E+00
 -1       242 5.00000E-01 7.50000E-01 4.00000E+00
 -1       243 5.00000E-01 5.00000E-01 4.50000E+00
 -1       244 5.00000E-01 2.50000E-01 5.00000E+00
 -1       245 2.50000E-01 5.00000E-01 5.00000E+00
 -1       246 5.00000E-01 5.00000E-01 5.00000E+00
 -1       247 7.50000E-01 5.00000E-01 5.00000E+00
 -1       248 5.00000E-01 7.50000E-01 5.00000E+00
 -1       249 5.00000E-01 5.00000E-01 5.50000E+00
 -1       250 5.00000E-01 2.50000E-01 6.00000E+00
 -1       251 2.50000E-01 5.00000E-01 6.00000E+00
 -1       252 5.00000E-01 5.00000E-01 6.00000E+00
 -1       253 7.50000E-01 5.00000E-01 6.00000E+00
 -1       254 5.00000E-01 7.50000E-01 6.00000E+00
 -3
    3C                            24                                     1
 -1         1    4    0    1
 -2         1        10        95        19        61       105       222       192         9        93
 -2        94        20        62       103       219       190       104       220       221       193
 -1         2    4    0    1
 -2        10         2        13        95       105        34       134       222        11        12
 -2        96        93       103        33       132       219       106       133       223       220
 -1         3    4    0    1
 -2        19        95        16         4       192       222       163        79        94        97
 -2        17        18       190       219       161        78       221       224       164       191
 -1         4    4    0    1
 -2        95        13         3        16       222       134        64       163        96        14
 -2        15        97       219       132        63       161       223       135       162       224
 -1         5    4    0    1
 -2        61       105       222       192        59       109       228       196       104       220
 -2       221       193        60       107       225       194       108       226       227       197
 -1         6    4    0    1
 -2       105        34       134       222       109        36       138       228       106       133
 -2       223       220       107        35       136       225       110       137       229       226
 -1         7    4    0    1
 -2       192       222       163        79       196       228       167        81       221       224
 -2       164       191       194       225       165        80       227       230       168       195
 -1         8    4    0    1
 -2       222       134        64       163       228       138        66       167       223       135
 -2       162       224       225       136        65       165       229       139       166       230
 -1         9    4    0    1
 -2        59       109       228       196        57       113       234       200       108       226
 -2       227       197        58       111       231       198       112       232       233       201
 -1        10    4    0    1
 -2       109        36       138       228       113        38       142       234       110       137
 -2       229       226       111        37       140       231       114       141       235       232
 -1        11    4    0    1
 -2       196       228       167        81       200       234       171        83       227       230
 -2       168       195       198       231       169        82       233       236       172       199
 -1        12    4    0    1
 -2       228       138        66       167       234       142        68       171       229       139
 -2       166       230       231       140        67       169       235       143       170       236
 -1        13    4    0    1
 -2        57       113       234       200        55       117       240       204       112       232
 -2       233       201        56       115       237       202       116       238       239       205
 -1        14    4    0    1
 -2       113        38       142       234       117        40       146       240       114       141
 -2       235       232       115        39       144       237       118       145       241       238
 -1        15    4    0    1
 -2       200       234       171        83       204       240       175        85       233       236
 -2       172       199       202       237       173        84       239       242       176       203
 -1        16    4    0    1
 -2       234       142        68       171       240       146        70       175       235       143
 -2       170       236       237       144        69       173       241       147       174       242
 -1        17    4    0    1
 -2        55       117       240       204        53       121       246       208       116       238
 -2       239       205        54       119       243       206       120       244       245       209
 -1        18    4    0    1
 -2       117        40       146       240       121        42       150       246       118       145
 -2       241       238       119        41       148       243       122       149       247       244
 -1        19    4    0    1
 -2       204       240       175        85       208       246       179        87       239       242
 -2       176       203       206       243       177        86       245       248       180       207
 -1        20    4    0    1
 -2       240       146        70       175       246       150        72       179       241       147
 -2       174       242       243       148        71       177       247       151       178       248
 -1        21    4    0    1
 -2        53       121       246       208        51       125       252       212       120       244
 -2       245       209        52       123       249       210       124       250       251       213
 -1        22    4    0    1
 -2       121        42       150       246       125        44       154       252       122       149
 -2       247       244       123        43       152       249       126       153       253       250
 -1        23    4    0    1
 -2       208       246       179        87       212       252       183        89       245       248
 -2       180       207       210       249       181        88       251       254       184       211
 -1        24    4    0    1
 -2       246       150        72       179       252       154        74       183       247       151
 -2       178       248       249       152        73       181       253       155       182       254
 -3
    1PSTEP                         1           1           1          
  100CL  101 2.50000E-03         201                     1    1           1
 -4  DISP        4    1
 -5  D1          1    2    1    0
 -5  D2          1    2    2    0
 -5  D3          1    2    3    0
 -5  ALL         1    2    0    0    1ALL
 -1         1 0.00000E+00 0.00000E+00 0.00000E+00
 -1         2 0.00000E+00 0.00000E+00 0.00000E+00
 -1         3 0.00000E+00 0.00000E+00 0.00000E+00
 -1         4 0.00000E+00 0.00000E+00 0.00000E+00
 -1         9 0.00000E+00 0.00000E+00 0.00000E+00
 -1        10 0.00000E+00 0.00000E+00 0.00000E+00
 -1        11 0.00000E+00 0.00000E+00 0.00000E+00
 -1        12 0.00000E+00 0.00000E+00 0.00000E+00
 -1        13 0.00000E+00 0.00000E+00 0.00000E+00
 -1        14 0.00000E+00 0.00000E+00 0.00000E+00
 -1        15 0.00000E+00 0.00000E+00 0.00000E+00
 -1        16 0.00000E+00 0.00000E+00 0.00000E+00
 -1        17 0.00000E+00 0.00000E+00 0.00000E+00
 -1        18 0.00000E+00 0.00000E+00 0.00000E+00
 -1        19 0.00000E+00 0.00000E+00 0.00000E+00
 -1        20 0.00000E+00 0.00000E+00 0.00000E+00
 -1        33 7.57814E-05-1.84199E-04-2.42558E-04
 -1        34 3.73392E-05-5.70572E-04-4.44528E-04
 -1        35 3.06619E-05-1.14958E-03-5.74515E-04
 -1        36 9.43243E-06-1.81075E-03-6.42896E-04
 -1        37-5.27792E-06-2.50065E-03-6.51838E-04
 -1        38-2.32590E-05-3.19142E-03-6.21900E-04
 -1        39-5.09013E-05-3.79036E-03-4.60769E-04
 -1        40-5.57713E-05-4.20497E-03-2.55214E-04
 -1        41-4.60536E-05-4.23976E-03-8.10614E-05
 -1        42-6.23718E-05-4.44565E-03-2.12120E-04
 -1        43 7.04261E-05-4.14090E-03 8.13692E-05
 -1        44-1.77699E-04-4.18548E-03 5.27260E-04
 -1        51 1.77705E-04-4.18548E-03 5.27257E-04
 -1        52-7.04129E-05-4.14089E-03 8.13685E-05
 -1        53 6.23794E-05-4.44565E-03-2.12120E-04
 -1        54 4.60653E-05-4.23976E-03-8.10605E-05
 -1        55 5.57812E-05-4.20497E-03-2.55214E-04
 -1        56 5.09117E-05-3.79036E-03-4.60767E-04
 -1        57 2.32668E-05-3.19142E-03-6.21898E-04
 -1        58 5.28461E-06-2.50065E-03-6.51837E-04
 -1        59-9.42793E-06-1.81075E-03-6.42894E-04
 -1        60-3.06589E-05-1.14958E-03-5.74514E-04
 -1        61-3.73378E-05-5.70572E-04-4.44527E-04
 -1        62-7.57809E-05-1.84199E-04-2.42557E-04
 -1        63-7.40872E-05-1.81690E-04 2.37582E-04
 -1        64-3.71067E-05-5.69775E-04 4.33860E-04
 -1        65-2.72171E-05-1.14892E-03 5.59554E-04
 -1        66-9.02311E-06-1.82010E-03 6.22960E-04
 -1        67 4.81482E-06-2.48644E-03 6.27289E-04
 -1        68 1.35806E-05-3.19225E-03 5.85518E-04
 -1        69 7.51920E-05-3.80634E-03 4.22157E-04
 -1        70 9.09209E-05-4.33731E-03 2.18515E-04
 -1        71-3.08308E-05-4.06016E-03 3.64321E-05
 -1        72-1.84270E-04-4.06268E-03 1.12816E-04
 -1        73 3.32091E-04-4.75577E-03-2.00437E-04
 -1        74 5.94114E-04-5.57284E-03-5.94333E-04
 -1        78 7.40878E-05-1.81691E-04 2.37583E-04
 -1        79 3.71086E-05-5.69775E-04 4.33861E-04
 -1        80 2.72207E-05-1.14892E-03 5.59556E-04
 -1        81 9.02900E-06-1.82010E-03 6.22962E-04
 -1        82-4.80712E-06-2.48643E-03 6.27290E-04
 -1        83-1.35703E-05-3.19225E-03 5.85520E-04
 -1        84-7.51806E-05-3.80634E-03 4.22158E-04
 -1        85-9.09066E-05-4.33731E-03 2.18517E-04
 -1        86 3.08435E-05-4.06015E-03 3.64311E-05
 -1        87 1.84284E-04-4.06268E-03 1.12813E-04
 -1        88-3.32080E-04-4.75576E-03-2.00441E-04
 -1        89-5.94098E-04-5.57284E-03-5.94334E-04
 -1        93 0.00000E+00 0.00000E+00 0.00000E+00
 -1        94 0.00000E+00 0.00000E+00 0.00000E+00
 -1        95 0.00000E+00 0.00000E+00 0.00000E+00
 -1        96 0.00000E+00 0.00000E+00 0.00000E+00
 -1        97 0.00000E+00 0.00000E+00 0.00000E+00
 -1       103 1.41792E-10-2.15345E-04-2.38100E-04
 -1       104-1.86062E-05-5.93891E-04-4.51361E-04
 -1       105 7.25945E-10-5.96849E-04-4.54534E-04
 -1       106 1.86075E-05-5.93891E-04-4.51362E-04
 -1       107 1.41067E-09-1.16135E-03-5.77729E-04
 -1       108-3.84718E-06-1.81314E-03-6.47388E-04
 -1       109 2.44316E-09-1.82680E-03-6.45533E-04
 -1       110 3.85187E-06-1.81314E-03-6.47389E-04
 -1       111 3.23500E-09-2.48990E-03-6.57078E-04
 -1       112 8.20363E-06-3.22609E-03-6.22576E-04
 -1       113 4.45065E-09-3.21912E-03-6.24784E-04
 -1       114-8.19526E-06-3.22609E-03-6.22577E-04
 -1       115 4.79631E-09-3.74010E-03-4.70994E-04
 -1       116 4.06864E-05-4.17988E-03-2.48527E-04
 -1       117 6.06702E-09-4.34527E-03-2.17752E-04
 -1       118-4.06754E-05-4.17988E-03-2.48527E-04
 -1       119 5.37472E-09-4.21841E-03-9.27037E-05
 -1       120-8.30408E-06-4.67154E-03-1.52948E-04
 -1       121 7.29459E-09-4.49986E-03-1.53068E-04
 -1       122 8.31524E-06-4.67154E-03-1.52947E-04
 -1       123 3.04613E-09-4.13024E-03-5.62457E-05
 -1       124 2.02068E-04-3.52764E-03 5.06391E-04
 -1       125 8.42170E-09-4.26824E-03 5.28478E-04
 -1       126-2.02056E-04-3.52764E-03 5.06388E-04
 -1       132 1.03475E-06-1.40507E-04-2.31256E-06
 -1       133 1.91887E-05-5.55786E-04-2.11750E-04
 -1       134 1.27209E-06-5.61225E-04-4.16134E-06
 -1       135-1.81045E-05-5.55920E-04 2.01863E-04
 -1       136-2.16860E-07-1.12861E-03-8.08952E-06
 -1       137 6.25736E-06-1.80733E-03-3.20329E-04
 -1       138 8.11541E-07-1.79648E-03-1.06822E-05
 -1       139-4.64971E-06-1.80988E-03 3.00886E-04
 -1       140 2.40803E-06-2.51992E-03-1.32736E-05
 -1       141-1.33583E-05-3.17340E-03-2.93235E-04
 -1       142 7.69216E-06-3.18219E-03-7.32540E-06
 -1       143 1.48283E-05-3.18192E-03 2.63972E-04
 -1       144-1.26100E-05-3.81502E-03-1.84123E-05
 -1       145-1.86992E-05-4.21697E-03-1.64450E-04
 -1       146-1.78859E-05-4.08523E-03-3.61920E-05
 -1       147 1.45607E-05-4.25394E-03 1.19226E-04
 -1       148 3.84741E-05-4.38533E-03-3.44498E-05
 -1       149-6.51040E-05-4.05418E-03-7.21149E-05
 -1       150 1.18231E-04-4.08687E-03-2.44597E-06
 -1       151 6.28657E-05-3.94710E-03 3.90706E-06
 -1       152-1.79777E-04-4.42069E-03 1.83611E-05
 -1       153 1.79238E-04-4.24259E-03 2.22048E-04
 -1       154-1.59537E-04-2.71292E-03-3.00288E-05
 -1       155-1.90089E-04-4.64929E-03-2.90129E-04
 -1       161 2.59829E-10-2.13614E-04 2.32694E-04
 -1       162-1.82642E-05-5.92951E-04 4.41599E-04
 -1       163 9.00748E-10-5.93313E-04 4.44069E-04
 -1       164 1.82661E-05-5.92951E-04 4.41600E-04
 -1       165 1.82548E-09-1.16139E-03 5.63173E-04
 -1       166-4.64158E-06-1.80933E-03 6.26947E-04
 -1       167 2.76106E-09-1.82085E-03 6.29945E-04
 -1       168 4.64729E-06-1.80933E-03 6.26947E-04
 -1       169 3.98734E-09-2.49134E-03 6.27016E-04
 -1       170 7.69209E-06-3.22586E-03 5.93586E-04
 -1       171 4.79075E-09-3.17392E-03 5.86817E-04
 -1       172-7.68215E-06-3.22586E-03 5.93587E-04
 -1       173 5.98863E-09-3.76932E-03 4.35677E-04
 -1       174 4.11211E-05-4.09530E-03 2.00522E-04
 -1       175 5.95229E-09-4.22719E-03 2.02940E-04
 -1       176-4.11080E-05-4.09530E-03 2.00523E-04
 -1       177 7.28099E-09-4.15849E-03 2.80564E-05
 -1       178-7.31450E-05-4.81226E-03 9.32145E-05
 -1       179 5.74118E-09-4.23284E-03 5.04302E-05
 -1       180 7.31583E-05-4.81226E-03 9.32139E-05
 -1       181 7.54922E-09-4.41090E-03-7.24779E-05
 -1       182 2.02745E-04-2.94113E-03-5.66515E-04
 -1       183-4.19825E-10-5.36998E-03-5.69688E-04
 -1       184-2.02738E-04-2.94113E-03-5.66521E-04
 -1       190-1.03413E-06-1.40507E-04-2.31188E-06
 -1       191 1.81064E-05-5.55920E-04 2.01864E-04
 -1       192-1.27037E-06-5.61224E-04-4.16005E-06
 -1       193-1.91871E-05-5.55786E-04-2.11749E-04
 -1       194 2.20200E-07-1.12861E-03-8.08788E-06
 -1       195 4.65527E-06-1.80988E-03 3.00888E-04
 -1       196-8.06271E-07-1.79648E-03-1.06803E-05
 -1       197-6.25249E-06-1.80733E-03-3.20327E-04
 -1       198-2.40088E-06-2.51992E-03-1.32718E-05
 -1       199-1.48185E-05-3.18192E-03 2.63974E-04
 -1       200-7.68304E-06-3.18219E-03-7.32375E-06
 -1       201 1.33668E-05-3.17340E-03-2.93234E-04
 -1       202 1.26207E-05-3.81502E-03-1.84109E-05
 -1       203-1.45478E-05-4.25394E-03 1.19227E-04
 -1       204 1.78982E-05-4.08523E-03-3.61911E-05
 -1       205 1.87100E-05-4.21697E-03-1.64449E-04
 -1       206-3.84622E-05-4.38533E-03-3.44499E-05
 -1       207-6.28510E-05-3.94710E-03 3.90690E-06
 -1       208-1.18220E-04-4.08687E-03-2.44704E-06
 -1       209 6.51143E-05-4.05418E-03-7.21161E-05
 -1       210 1.79789E-04-4.42069E-03 1.83594E-05
 -1       211 1.90097E-04-4.64929E-03-2.90139E-04
 -1       212 1.59549E-04-2.71291E-03-3.00316E-05
 -1       213-1.79231E-04-4.24259E-03 2.22049E-04
 -1       219 2.47435E-10-1.70998E-04-2.07230E-06
 -1       220 7.93125E-10-5.79526E-04-2.18445E-04
 -1       221-6.05919E-07-5.80838E-04-5.26904E-06
 -1       222 8.37929E-10-5.82787E-04-5.50937E-06
 -1       223 6.07588E-07-5.80838E-04-5.26966E-06
 -1       224 8.79688E-10-5.77569E-04 2.08366E-04
 -1       225 1.64690E-09-1.14294E-03-7.42558E-06
 -1       226 2.52319E-09-1.81706E-03-3.25456E-04
 -1       227-4.92184E-07-1.79920E-03-9.94172E-06
 -1       228 2.58740E-09-1.80105E-03-1.22262E-05
 -1       229 4.97402E-07-1.79920E-03-9.94262E-06
 -1       230 2.68350E-09-1.81453E-03 3.03407E-04
 -1       231 3.62905E-09-2.51768E-03-1.08479E-05
 -1       232 4.46751E-09-3.18828E-03-2.98914E-04
 -1       233-3.32940E-06-3.17740E-03-1.84321E-05
 -1       234 4.54802E-09-3.17869E-03-2.02955E-05
 -1       235 3.33853E-06-3.17740E-03-1.84330E-05
 -1       236 4.63755E-09-3.16396E-03 2.66753E-04
 -1       237 5.38175E-09-3.78088E-03-1.35155E-05
 -1       238 6.04038E-09-4.29561E-03-1.52639E-04
 -1       239 9.09876E-06-4.09239E-03-2.07652E-05
 -1       240 5.82097E-09-4.11801E-03-2.88965E-05
 -1       241-9.08684E-06-4.09239E-03-2.07657E-05
 -1       242 5.96423E-09-4.23889E-03 1.00729E-04
 -1       243 6.41459E-09-4.34251E-03-3.09248E-05
 -1       244 6.24227E-09-4.20342E-03-2.82418E-05
 -1       245-5.13224E-05-4.27016E-03-3.81229E-05
 -1       246 6.10951E-09-4.39018E-03-2.87032E-05
 -1       247 5.13345E-05-4.27016E-03-3.81223E-05
 -1       248 5.64108E-09-4.09181E-03-1.57885E-05
 -1       249 5.10510E-09-4.14790E-03-1.97817E-05
 -1       250 7.04957E-09-4.93819E-03 1.98654E-04
 -1       251 5.78524E-05-3.09554E-03-1.50605E-05
 -1       252 2.45986E-09-3.73176E-03-2.31217E-05
 -1       253-5.78448E-05-3.09555E-03-1.50598E-05
 -1       254 1.83185E-09-5.37619E-03-3.14707E-04
 -3
    1PSTEP                         2           2           1          
  100CL  102 5.00000E-03         201                     1    2           1
 -4  DISP        4    1
 -5  D1          1    2    1    0
 -5  D2          1    2    2    0
 -5  D3          1    2    3    0
 -5  ALL         1    2    0    0    1ALL
 -1         1 0.00000E+00 0.00000E+00 0.00000E+00
 -1         2 0.00000E+00 0.00000E+00 0.00000E+00
 -1         3 0.00000E+00 0.00000E+00 0.00000E+00
 -1         4 0.00000E+00 0.00000E+00 0.00000E+00
 -1         9 0.00000E+00 0.00000E+00 0.00000E+00
 -1        10 0.00000E+00 0.00000E+00 0.00000E+00
 -1        11 0.00000E+00 0.00000E+00 0.00000E+00
 -1        12 0.00000E+00 0.00000E+00 0.00000E+00
 -1        13 0.00000E+00 0.00000E+00 0.00000E+00
 -1        14 0.00000E+00 0.00000E+00 0.00000E+00
 -1        15 0.00000E+00 0.00000E+00 0.00000E+00
 -1        16 0.00000E+00 0.00000E+00 0.00000E+00
 -1        17 0.00000E+00 0.00000E+00 0.00000E+00
 -1        18 0.00000E+00 0.00000E+00 0.00000E+00
 -1        19 0.00000E+00 0.00000E+00 0.00000E+00
 -1        20 0.00000E+00 0.00000E+00 0.00000E+00
 -1        33-7.96343E-06 2.17684E-05 2.65084E-05
 -1        34-3.44686E-06 6.66926E-05 4.67859E-05
 -1        35-2.88146E-06 1.33216E-04 6.06243E-05
 -1        36-1.90492E-06 2.07201E-04 6.51481E-05
 -1        37 4.09247E-06 2.90351E-04 6.26508E-05
 -1        38 8.70841E-06 3.69987E-04 4.41179E-05
 -1        39 4.17695E-06 4.13097E-04 3.22850E-05
 -1        40-1.03739E-05 4.55989E-04 3.37472E-07
 -1        41 3.12081E-05 4.91761E-04-1.48303E-05
 -1        42 3.69497E-05 4.55997E-04-1.13301E-04
 -1        43-2.09639E-05 3.50097E-04-8.45866E-05
 -1        44-3.70358E-04 1.68743E-04-7.49402E-05
 -1        51 3.70336E-04 1.68759E-04-7.49362E-05
 -1        52 2.09402E-05 3.50096E-04-8.45814E-05
 -1        53-3.69641E-05 4.55993E-04-1.13300E-04
 -1        54-3.12280E-05 4.91758E-04-1.48319E-05
 -1        55 1.03562E-05 4.55987E-04 3.36231E-07
 -1        56-4.19419E-06 4.13094E-04 3.22826E-05
 -1        57-8.72145E-06 3.69985E-04 4.41149E-05
 -1        58-4.10333E-06 2.90349E-04 6.26474E-05
 -1        59 1.89764E-06 2.07199E-04 6.51450E-05
 -1        60 2.87680E-06 1.33215E-04 6.06215E-05
 -1        61 3.44488E-06 6.66917E-05 4.67837E-05
 -1        62 7.96284E-06 2.17677E-05 2.65072E-05
 -1        63 9.01064E-06 2.33224E-05-2.95882E-05
 -1        64 3.58635E-06 6.71861E-05-5.33903E-05
 -1        65 5.01188E-06 1.33621E-04-6.98861E-05
 -1        66 2.15047E-06 2.01399E-04-7.74913E-05
 -1        67-4.41687E-06 2.99179E-04-7.78510E-05
 -1        68-1.47532E-05 3.69502E-04-6.66489E-05
 -1        69 1.09357E-05 4.03107E-04-5.61979E-05
 -1        70 3.22553E-05 3.73856E-04-2.30659E-05
 -1        71-7.92626E-05 6.03443E-04-1.28058E-05
 -1        72-1.90451E-04 6.93953E-04 5.17877E-05
 -1        73 2.72027E-04-3.25895E-05 1.08034E-05
 -1        74 6.31322E-04-6.93955E-04 3.33785E-05
 -1        78-9.01188E-06 2.33225E-05-2.95894E-05