    1C
    1UUSER                                                              
    1UDATE              11.july.2018                                    
    1UTIME              16:17:26                                        
    1UHOST                                                              
    1UPGM               CalculiX                                        
    1UVERSION           Version 2.13                             
    1UCOMPILETIME       jue jun 14 00:40:39 CEST 2018                    
    1UDIR                                                               
    1UDBN                                                               
    1UMAT    1EL                                                        
    2C                            81                                     1
 -1         5 0.00000E+00 0.00000E+00 8.00000E+00
 -1         6 1.00000E+00 0.00000E+00 8.00000E+00
 -1         7 1.00000E+00 1.00000E+00 8.00000E+00
 -1         8 0.00000E+00 1.00000E+00 8.00000E+00
 -1        21 2.50000E-01 0.00000E+00 8.00000E+00
 -1        22 5.00000E-01 0.00000E+00 8.00000E+00
 -1        23 7.50000E-01 0.00000E+00 8.00000E+00
 -1        24 1.00000E+00 2.50000E-01 8.00000E+00
 -1        25 1.00000E+00 5.00000E-01 8.00000E+00
 -1        26 1.00000E+00 7.50000E-01 8.00000E+00
 -1        27 7.50000E-01 1.00000E+00 8.00000E+00
 -1        28 5.00000E-01 1.00000E+00 8.00000E+00
 -1        29 2.50000E-01 1.00000E+00 8.00000E+00
 -1        30 0.00000E+00 7.50000E-01 8.00000E+00
 -1        31 0.00000E+00 5.00000E-01 8.00000E+00
 -1        32 0.00000E+00 2.50000E-01 8.00000E+00
 -1        44 1.00000E+00 0.00000E+00 6.00000E+00
 -1        45 1.00000E+00 0.00000E+00 6.50000E+00
 -1        46 1.00000E+00 0.00000E+00 7.00000E+00
 -1        47 1.00000E+00 0.00000E+00 7.50000E+00
 -1        48 0.00000E+00 0.00000E+00 7.50000E+00
 -1        49 0.00000E+00 0.00000E+00 7.00000E+00
 -1        50 0.00000E+00 0.00000E+00 6.50000E+00
 -1        51 0.00000E+00 0.00000E+00 6.00000E+00
 -1        74 1.00000E+00 1.00000E+00 6.00000E+00
 -1        75 1.00000E+00 1.00000E+00 6.50000E+00
 -1        76 1.00000E+00 1.00000E+00 7.00000E+00
 -1        77 1.00000E+00 1.00000E+00 7.50000E+00
 -1        89 0.00000E+00 1.00000E+00 6.00000E+00
 -1        90 0.00000E+00 1.00000E+00 6.50000E+00
 -1        91 0.00000E+00 1.00000E+00 7.00000E+00
 -1        92 0.00000E+00 1.00000E+00 7.50000E+00
 -1        98 5.00000E-01 2.50000E-01 8.00000E+00
 -1        99 2.50000E-01 5.00000E-01 8.00000E+00
 -1       100 5.00000E-01 5.00000E-01 8.00000E+00
 -1       101 7.50000E-01 5.00000E-01 8.00000E+00
 -1       102 5.00000E-01 7.50000E-01 8.00000E+00
 -1       124 2.50000E-01 0.00000E+00 6.00000E+00
 -1       125 5.00000E-01 0.00000E+00 6.00000E+00
 -1       126 7.50000E-01 0.00000E+00 6.00000E+00
 -1       127 5.00000E-01 0.00000E+00 6.50000E+00
 -1       128 2.50000E-01 0.00000E+00 7.00000E+00
 -1       129 5.00000E-01 0.00000E+00 7.00000E+00
 -1       130 7.50000E-01 0.00000E+00 7.00000E+00
 -1       131 5.00000E-01 0.00000E+00 7.50000E+00
 -1       153 1.00000E+00 2.50000E-01 6.00000E+00
 -1       154 1.00000E+00 5.00000E-01 6.00000E+00
 -1       155 1.00000E+00 7.50000E-01 6.00000E+00
 -1       156 1.00000E+00 5.00000E-01 6.50000E+00
 -1       157 1.00000E+00 2.50000E-01 7.00000E+00
 -1       158 1.00000E+00 5.00000E-01 7.00000E+00
 -1       159 1.00000E+00 7.50000E-01 7.00000E+00
 -1       160 1.00000E+00 5.00000E-01 7.50000E+00
 -1       182 7.50000E-01 1.00000E+00 6.00000E+00
 -1       183 5.00000E-01 1.00000E+00 6.00000E+00
 -1       184 2.50000E-01 1.00000E+00 6.00000E+00
 -1       185 5.00000E-01 1.00000E+00 6.50000E+00
 -1       186 7.50000E-01 1.00000E+00 7.00000E+00
 -1       187 5.00000E-01 1.00000E+00 7.00000E+00
 -1       188 2.50000E-01 1.00000E+00 7.00000E+00
 -1       189 5.00000E-01 1.00000E+00 7.50000E+00
 -1       211 0.00000E+00 7.50000E-01 6.00000E+00
 -1       212 0.00000E+00 5.00000E-01 6.00000E+00
 -1       213 0.00000E+00 2.50000E-01 6.00000E+00
 -1       214 0.00000E+00 5.00000E-01 6.50000E+00
 -1       215 0.00000E+00 7.50000E-01 7.00000E+00
 -1       216 0.00000E+00 5.00000E-01 7.00000E+00
 -1       217 0.00000E+00 2.50000E-01 7.00000E+00
 -1       218 0.00000E+00 5.00000E-01 7.50000E+00
 -1       250 5.00000E-01 2.50000E-01 6.00000E+00
 -1       251 2.50000E-01 5.00000E-01 6.00000E+00
 -1       252 5.00000E-01 5.00000E-01 6.00000E+00
 -1       253 7.50000E-01 5.00000E-01 6.00000E+00
 -1       254 5.00000E-01 7.50000E-01 6.00000E+00
 -1       255 5.00000E-01 5.00000E-01 6.50000E+00
 -1       256 5.00000E-01 2.50000E-01 7.00000E+00
 -1       257 2.50000E-01 5.00000E-01 7.00000E+00
 -1       258 5.00000E-01 5.00000E-01 7.00000E+00
 -1       259 7.50000E-01 5.00000E-01 7.00000E+00
 -1       260 5.00000E-01 7.50000E-01 7.00000E+00
 -1       261 5.00000E-01 5.00000E-01 7.50000E+00
 -3
    3C                             8                                     1
 -1        25    4    0    1
 -2        51       125       252       212        49       129       258       216       124       250
 -2       251       213        50       127       255       214       128       256       257       217
 -1        26    4    0    1
 -2       125        44       154       252       129        46       158       258       126       153
 -2       253       250       127        45       156       255       130       157       259       256
 -1        27    4    0    1
 -2       212       252       183        89       216       258       187        91       251       254
 -2       184       211       214       255       185        90       257       260       188       215
 -1        28    4    0    1
 -2       252       154        74       183       258       158        76       187       253       155
 -2       182       254       255       156        75       185       259       159       186       260
 -1        29    4    0    1
 -2        49       129       258       216         5        22       100        31       128       256
 -2       257       217        48       131       261       218        21        98        99        32
 -1        30    4    0    1
 -2       129        46       158       258        22         6        25       100       130       157
 -2       259       256       131        47       160       261        23        24       101        98
 -1        31    4    0    1
 -2       216       258       187        91        31       100        28         8       257       260
 -2       188       215       218       261       189        92        99       102        29        30
 -1        32    4    0    1
 -2       258       158        76       187       100        25         7        28       259       159
 -2       186       260       261       160        77       189       101        26        27       102
 -3
    1PSTEP                         1           1           1          
  100CL  101 2.50000E-03          81                     1    1           1
 -4  DISP        4    1
 -5  D1          1    2    1    0
 -5  D2          1    2    2    0
 -5  D3          1    2    3    0
 -5  ALL         1    2    0    0    1ALL
 -1         5 0.00000E+00 0.00000E+00 0.00000E+00
 -1         6 0.00000E+00 0.00000E+00 0.00000E+00
 -1         7 0.00000E+00 0.00000E+00 0.00000E+00
 -1         8 0.00000E+00 0.00000E+00 0.00000E+00
 -1        21 0.00000E+00 0.00000E+00 0.00000E+00
 -1        22 0.00000E+00 0.00000E+00 0.00000E+00
 -1        23 0.00000E+00 0.00000E+00 0.00000E+00
 -1        24 0.00000E+00 0.00000E+00 0.00000E+00
 -1        25 0.00000E+00 0.00000E+00 0.00000E+00
 -1        26 0.00000E+00 0.00000E+00 0.00000E+00
 -1        27 0.00000E+00 0.00000E+00 0.00000E+00
 -1        28 0.00000E+00 0.00000E+00 0.00000E+00
 -1        29 0.00000E+00 0.00000E+00 0.00000E+00
 -1        30 0.00000E+00 0.00000E+00 0.00000E+00
 -1        31 0.00000E+00 0.00000E+00 0.00000E+00
 -1        32 0.00000E+00 0.00000E+00 0.00000E+00
 -1        44 1.18548E-04-4.03913E-03 5.19891E-04
 -1        45 5.58725E-05-2.96385E-03 1.00374E-03
 -1        46-5.93232E-05-2.18465E-03 1.08946E-03
 -1        47 1.21674E-04-8.48140E-04 6.54435E-04
 -1        48-1.21656E-04-8.48122E-04 6.54382E-04
 -1        49 5.91803E-05-2.18479E-03 1.08941E-03
 -1        50-5.57392E-05-2.96371E-03 1.00419E-03
 -1        51-1.19541E-04-4.04012E-03 5.21531E-04
 -1        74-1.53899E-05-4.53951E-03-5.91327E-04
 -1        75 3.77814E-05-3.15408E-03-1.04733E-03
 -1        76-1.49542E-05-2.13911E-03-1.11298E-03
 -1        77-1.72508E-04-7.55385E-04-6.71853E-04
 -1        89 1.63834E-05-4.54050E-03-5.92968E-04
 -1        90-3.79143E-05-3.15395E-03-1.04779E-03
 -1        91 1.50972E-05-2.13925E-03-1.11293E-03
 -1        92 1.72490E-04-7.55367E-04-6.71800E-04
 -1        98 0.00000E+00 0.00000E+00 0.00000E+00
 -1        99 0.00000E+00 0.00000E+00 0.00000E+00
 -1       100 0.00000E+00 0.00000E+00 0.00000E+00
 -1       101 0.00000E+00 0.00000E+00 0.00000E+00
 -1       102 0.00000E+00 0.00000E+00 0.00000E+00
 -1       124-9.93930E-06-3.58362E-03 5.18629E-04
 -1       125-1.35028E-07-4.03960E-03 5.23602E-04
 -1       126 9.38974E-06-3.58306E-03 5.18055E-04
 -1       127 2.12132E-08-3.04867E-03 9.64355E-04
 -1       128 2.28480E-05-2.26420E-03 1.10974E-03
 -1       129 6.57802E-09-2.11018E-03 1.11439E-03
 -1       130-2.29170E-05-2.26415E-03 1.10968E-03
 -1       131-4.68968E-09-8.58268E-04 6.37588E-04
 -1       153-7.26717E-05-4.75670E-03 2.37850E-04
 -1       154-7.90751E-05-3.73300E-03-3.45914E-05
 -1       155 7.84750E-05-4.88513E-03-3.08255E-04
 -1       156-5.15479E-05-3.15209E-03-6.49625E-05
 -1       157 2.29790E-05-1.88154E-03 4.45065E-04
 -1       158 5.61203E-05-2.03657E-03-1.63563E-05
 -1       159 1.94631E-05-1.90086E-03-4.68764E-04
 -1       160 2.55303E-05-7.62871E-04 1.09042E-05
 -1       182-6.27727E-05-3.37984E-03-5.84019E-04
 -1       183 1.35404E-07-4.48399E-03-5.86978E-04
 -1       184 6.33234E-05-3.38041E-03-5.84593E-04
 -1       185-2.10701E-08-3.26547E-03-9.61273E-04
 -1       186 1.49035E-05-2.48472E-03-1.16593E-03
 -1       187-6.43798E-09-2.28189E-03-1.17928E-03
 -1       188-1.48344E-05-2.48477E-03-1.16599E-03
 -1       189 4.72544E-09-8.91163E-04-6.69251E-04
 -1       211-7.79085E-05-4.88568E-03-3.08829E-04
 -1       212 7.90757E-05-3.73327E-03-3.45914E-05
 -1       213 7.21053E-05-4.75725E-03 2.38424E-04
 -1       214 5.15483E-05-3.15205E-03-6.49625E-05
 -1       215-1.94121E-05-1.90093E-03-4.68819E-04
 -1       216-5.61203E-05-2.03656E-03-1.63564E-05
 -1       217-2.30299E-05-1.88160E-03 4.45120E-04
 -1       218-2.55303E-05-7.62881E-04 1.09042E-05
 -1       250-1.24990E-07-4.27752E-03 1.48856E-04
 -1       251 1.17064E-05-3.03688E-03 2.31389E-05
 -1       252 8.74855E-11-3.25482E-03-8.81591E-06
 -1       253-1.17062E-05-3.03663E-03 2.31390E-05
 -1       254 1.25325E-07-4.50177E-03-3.43896E-04
 -1       255 7.50765E-11-3.29687E-03-3.43685E-05
 -1       256 1.98354E-08-1.83031E-03 4.91173E-04
 -1       257-2.86289E-05-2.09563E-03-2.50074E-05
 -1       258 4.87617E-11-1.90516E-03-2.23024E-05
 -1       259 2.86290E-05-2.09567E-03-2.50074E-05
 -1       260-1.97363E-08-1.90882E-03-5.09959E-04
 -1       261 1.55193E-11-8.25197E-04 8.02202E-07
 -3
    1PSTEP                         2           2           1          
  100CL  102 5.00000E-03          81                     1    2           1
 -4  DISP        4    1
 -5  D1          1    2    1    0
 -5  D2          1    2    2    0
 -5  D3          1    2    3    0
 -5  ALL         1    2    0    0    1ALL
 -1         5 0.00000E+00 0.00000E+00 0.00000E+00
 -1         6 0.00000E+00 0.00000E+00 0.00000E+00
 -1         7 0.00000E+00 0.00000E+00 0.00000E+00
 -1         8 0.00000E+00 0.00000E+00 0.00000E+00
 -1        21 0.00000E+00 0.00000E+00 0.00000E+00
 -1        22 0.00000E+00 0.00000E+00 0.00000E+00
 -1        23 0.00000E+00 0.00000E+00 0.00000E+00
 -1        24 0.00000E+00 0.00000E+00 0.00000E+00
 -1        25 0.00000E+00 0.00000E+00 0.00000E+00
 -1        26 0.00000E+00 0.00000E+00 0.00000E+00
 -1        27 0.00000E+00 0.00000E+00 0.00000E+00
 -1        28 0.00000E+00 0.00000E+00 0.00000E+00
 -1        29 0.00000E+00 0.00000E+00 0.00000E+00
 -1        30 0.00000E+00 0.00000E+00 0.00000E+00
 -1        31 0.00000E+00 0.00000E+00 0.00000E+00
 -1        32 0.00000E+00 0.00000E+00 0.00000E+00
 -1        44-2.71290E-04 2.09701E-04-6.51680E-05
 -1        45 1.50711E-06 2.43925E-04-7.81484E-05
 -1        46 2.39173E-05 2.26312E-04-2.57744E-05
 -1        47 5.24905E-06 1.41220E-04-8.41493E-05
 -1        48-5.29412E-06 1.41205E-04-8.41140E-05
 -1        49-2.41193E-05 2.26262E-04-2.56719E-05
 -1        50-1.76982E-06 2.43958E-04-7.80394E-05
 -1        51 2.70819E-04 2.09713E-04-6.50552E-05
 -1        74 4.36453E-04-5.16672E-04 2.19208E-05
 -1        75 1.73838E-04-6.18788E-05 7.71401E-05
 -1        76-1.42617E-04 3.69783E-04 2.12467E-05
 -1        77-6.16128E-05 2.55692E-04 7.00279E-05
 -1        89-4.36639E-04-5.16745E-04 2.19230E-05
 -1        90-1.74291E-04-6.17938E-05 7.73242E-05
 -1        91 1.42550E-04 3.69727E-04 2.14158E-05
 -1        92 6.15452E-05 2.55723E-04 7.01521E-05
 -1        98 0.00000E+00 0.00000E+00 0.00000E+00
 -1        99 0.00000E+00 0.00000E+00 0.00000E+00
 -1       100 0.00000E+00 0.00000E+00 0.00000E+00
 -1       101 0.00000E+00 0.00000E+00 0.00000E+00
 -1       102 0.00000E+00 0.00000E+00 0.00000E+00
 -1       124 1.83126E-04 3.26130E-04-5.60238E-05
 -1       125-1.12881E-07 2.76726E-04-5.68730E-05
 -1       126-1.83484E-04 3.26096E-04-5.59679E-05
 -1       127-1.87092E-07 3.01962E-04-3.47316E-06
 -1       128-2.79326E-05 1.91811E-04-8.35110E-05
 -1       129-5.20297E-08 1.93074E-04-1.06657E-04
 -1       130 2.77832E-05 1.91840E-04-8.35797E-05
 -1       131-2.46279E-08 1.04723E-04-6.15002E-05
 -1       153 2.57927E-04 5.90761E-04-3.82532E-05
 -1       154-1.04891E-04 1.13475E-03-1.66231E-05
 -1       155-2.36950E-04 4.17718E-04-7.46079E-06
 -1       156-9.70454E-05 2.90191E-04-4.91816E-05
 -1       157-5.67317E-05 2.69702E-04-2.53334E-05
 -1       158 7.36110E-05 2.67908E-04-2.55617E-05
 -1       159 7.61992E-05 2.85359E-04 6.39263E-06
 -1       160 3.30515E-05 4.77716E-05 3.74351E-06
 -1       182 1.20797E-04 6.38922E-04 1.48688E-05
 -1       183-4.15904E-07-3.29588E-04 3.90564E-05
 -1       184-1.21311E-04 6.38941E-04 1.51606E-05
 -1       185-7.94240E-08 7.37309E-05 2.55532E-05
 -1       186-4.86745E-05 1.45247E-05 5.23479E-05
 -1       187-1.43982E-07 1.61506E-04 8.03174E-05
 -1       188 4.85003E-05 1.44881E-05 5.23719E-05
 -1       189-1.44508E-08 1.14981E-04 5.17519E-05
 -1       211 2.36736E-04 4.17822E-04-7.28068E-06
 -1       212 1.04686E-04 1.13503E-03-1.65901E-05
 -1       213-2.58237E-04 5.90887E-04-3.82935E-05
 -1       214 9.66388E-05 2.90113E-04-4.90556E-05
 -1       215-7.62833E-05 2.85359E-04 6.51757E-06
 -1       216-7.37135E-05 2.67964E-04-2.54189E-05
 -1       217 5.65724E-05 2.69708E-04-2.51924E-05
 -1       218-3.31219E-05 4.77613E-05 3.83950E-06
 -1       250-2.08562E-07 1.37327E-04-3.99250E-05
 -1       251 1.18497E-05 1.64089E-04-5.48795E-06
 -1       252-3.23487E-07 1.91009E-04 5.12278E-06
 -1       253-1.22844E-05 1.63932E-04-5.68983E-06
 -1       254-3.89625E-07-1.47196E-04-1.84958E-05
 -1       255-1.18057E-07 4.48297E-04-2.60845E-05
 -1       256-9.10473E-08 1.41650E-04-6.05942E-05
 -1       257-3.13910E-05 2.67679E-04-1.08002E-05
 -1       258-1.22710E-07 3.12791E-05-1.42249E-05
 -1       259 3.12191E-05 2.67655E-04-1.08283E-05
 -1       260-1.30655E-07 1.26095E-04 4.06379E-05
 -1       261-1.90523E-08 6.87284E-05-1.92774E-06
 -3
    1PSTEP                         3           3           1          
  100CL  103 7.50000E-03          81                     1    3           1
 -4  DISP        4    1
 -5  D1          1    2    1    0
 -5  D2          1    2    2    0
 -5  D3          1    2    3    0
 -5  ALL         1    2    0    0    1ALL
 -1         5 0.00000E+00 0.00000E+00 0.00000E+00
 -1         6 0.00000E+00 0.00000E+00 0.00000E+00
 -1         7 0.00000E+00 0.00000E+00 0.00000E+00
 -1         8 0.00000E+00 0.00000E+00 0.00000E+00
 -1        21 0.00000E+00 0.00000E+00 0.00000E+00
 -1        22 0.00000E+00 0.00000E+00 0.00000E+00
 -1        23 0.00000E+00 0.00000E+00 0.00000E+00
 -1        24 0.00000E+00 0.00000E+00 0.00000E+00
 -1        25 0.00000E+00 0.00000E+00 0.00000E+00
 -1        26 0.00000E+00 0.00000E+00 0.00000E+00
 -1        27 0.00000E+00 0.00000E+00 0.00000E+00
 -1        28 0.00000E+00 0.00000E+00 0.00000E+00
 -1        29 0.00000E+00 0.00000E+00 0.00000E+00
 -1        30 0.00000E+00 0.00000E+00 0.00000E+00
 -1        31 0.00000E+00 0.00000E+00 0.00000E+00
 -1        32 0.00000E+00 0.00000E+00 0.00000E+00
 -1        44 3.13231E-05-1.96120E-03 2.67273E-04
 -1        45 4.23837E-05-1.48328E-03 4.32535E-04
 -1        46-3.85586E-05-1.06123E-03 5.45723E-04
 -1        47 7.56537E-05-4.00975E-04 3.21201E-04
 -1        48-7.57201E-05-4.01001E-04 3.21379E-04
 -1        49 3.87694E-05-1.06108E-03 5.45880E-04
 -1        50-4.29017E-05-1.48341E-03 4.32723E-04
 -1        51-3.07198E-05-1.96136E-03 2.67152E-04
 -1        74 8.00289E-05-2.35808E-03-2.85957E-04
 -1        75 5.95128E-05-1.65567E-03-4.29684E-04
 -1        76-2.78961E-05-9.78647E-04-5.49035E-04
 -1        77-1.07926E-04-3.38417E-04-3.29054E-04
 -1        89-8.07835E-05-2.35828E-03-2.85843E-04
 -1        90-5.92439E-05-1.65578E-03-4.29794E-04
 -1        91 2.75943E-05-9.78503E-04-5.49103E-04
 -1        92 1.07950E-04-3.38428E-04-3.29175E-04
 -1        98 0.00000E+00 0.00000E+00 0.00000E+00
 -1        99 0.00000E+00 0.00000E+00 0.00000E+00
 -1       100 0.00000E+00 0.00000E+00 0.00000E+00
 -1       101 0.00000E+00 0.00000E+00 0.00000E+00
 -1       102 0.00000E+00 0.00000E+00 0.00000E+00
 -1       124 1.10878E-04-1.72578E-03 2.51589E-04
 -1       125-6.38190E-07-2.14631E-03 2.60950E-04
 -1       126-1.11219E-04-1.72551E-03 2.50793E-04
 -1       127 1.76774E-07-1.51876E-03 5.40298E-04
 -1       128-1.47511E-05-1.14220E-03 5.52573E-04
 -1       129-2.33837E-07-1.04843E-03 5.50028E-04
 -1       130 1.46240E-05-1.14231E-03 5.52666E-04
 -1       131 9.38616E-09-4.32704E-04 3.25563E-04
 -1       153-7.16890E-06-2.11316E-03 1.11048E-04
 -1       154-4.93289E-05-1.50417E-03-7.25502E-06
 -1       155 1.20577E-05-2.21677E-03-1.33548E-04
 -1       156-4.98334E-05-1.67809E-03-2.69244E-05
 -1       157-3.79299E-06-8.74264E-04 2.28442E-04
 -1       158 3.71094E-05-8.86181E-04-1.28502E-05
 -1       159 1.54569E-05-8.61279E-04-2.37165E-04
 -1       160 1.67524E-05-3.75823E-04 1.79566E-06
 -1       182 9.93646E-05-1.55747E-03-2.71763E-04
 -1       183 4.64296E-07-2.47436E-03-2.67318E-04
 -1       184-9.92795E-05-1.55774E-03-2.72472E-04
 -1       185-2.54910E-07-1.63444E-03-5.31414E-04
 -1       186-2.97170E-05-1.23393E-03-5.67580E-04
 -1       187 1.55617E-07-1.06181E-03-5.60592E-04
 -1       188 2.97221E-05-1.23383E-03-5.67465E-04
 -1       189-2.47504E-08-4.27056E-04-3.29353E-04
 -1       211-1.23607E-05-2.21728E-03-1.33842E-04
 -1       212 4.93691E-05-1.50508E-03-7.31937E-06
 -1       213 7.44571E-06-2.11365E-03 1.11297E-04
 -1       214 4.96775E-05-1.67789E-03-2.69022E-05
 -1       215-1.56257E-05-8.61270E-04-2.37125E-04
 -1       216-3.71269E-05-8.86296E-04-1.28006E-05
 -1       217 3.89587E-06-8.74254E-04 2.28490E-04
 -1       218-1.67810E-05-3.75787E-04 1.83426E-06
 -1       250-4.44776E-07-2.43118E-03 1.08321E-04
 -1       251 1.01085E-05-1.46647E-03-5.50033E-06
 -1       252-1.16053E-07-1.94484E-03-9.19977E-06
 -1       253-1.02136E-05-1.46597E-03-5.58146E-06
 -1       254 2.36028E-07-2.57865E-03-1.37429E-04
 -1       255-2.81203E-08-1.51961E-03-1.45793E-05
 -1       256-1.28613E-07-9.46224E-04 2.32634E-04
 -1       257-1.69929E-05-1.03836E-03-5.42829E-06
 -1       258-5.23435E-08-1.05194E-03-6.58148E-06
 -1       259 1.69330E-05-1.03831E-03-5.42678E-06
 -1       260 3.75020E-08-9.54321E-04-2.44185E-04
 -1       261-6.48247E-09-4.15366E-04-5.00183E-07
 -3
    1PSTEP                         4           4           1          
  100CL  104 1.00000E-02          81                     1    4           1
 -4  DISP        4    1
 -5  D1          1    2    1    0
 -5  D2          1    2    2    0
 -5  D3          1    2    3    0
 -5  ALL         1    2    0    0    1ALL
 -1         5 0.00000E+00 0.00000E+00 0.00000E+00
 -1         6 0.00000E+00 0.00000E+00 0.00000E+00
 -1         7 0.00000E+00 0.00000E+00 0.00000E+00
 -1         8 0.00000E+00 0.00000E+00 0.00000E+00
 -1        21 0.00000E+00 0.00000E+00 0.00000E+00
 -1        22 0.00000E+00 0.00000E+00 0.00000E+00
 -1        23 0.00000E+00 0.00000E+00 0.00000E+00
 -1        24 0.00000E+00 0.00000E+00 0.00000E+00
 -1        25 0.00000E+00 0.00000E+00 0.00000E+00
 -1        26 0.00000E+00 0.00000E+00 0.00000E+00
 -1        27 0.00000E+00 0.00000E+00 0.00000E+00
 -1        28 0.00000E+00 0.00000E+00 0.00000E+00
 -1        29 0.00000E+00 0.00000E+00 0.00000E+00
 -1        30 0.00000E+00 0.00000E+00 0.00000E+00
 -1        31 0.00000E+00 0.00000E+00 0.00000E+00
 -1        32 0.00000E+00 0.00000E+00 0.00000E+00
 -1        44-7.39752E-05 9.84489E-04-1.41722E-04
 -1        45-1.62355E-05 7.58863E-04-2.28347E-04
 -1        46 2.18910E-05 5.59915E-04-2.63692E-04
 -1        47-3.46157E-05 2.25087E-04-1.71789E-04
 -1        48 3.46555E-05 2.25104E-04-1.71772E-04
 -1        49-2.14390E-05 5.60010E-04-2.63795E-04
 -1        50 1.63592E-05 7.58852E-04-2.28429E-04
 -1        51 7.52376E-05 9.84037E-04-1.41886E-04
 -1        74 6.41418E-05 9.99480E-04 1.40515E-04
 -1        75 1.37280E-05 7.72447E-04 2.22777E-04
 -1        76-2.17888E-05 5.51501E-04 2.65731E-04
 -1        77 3.61024E-05 2.21592E-04 1.73165E-04
 -1        89-6.41963E-05 9.99485E-04 1.40567E-04
 -1        90-1.28913E-05 7.72305E-04 2.22451E-04
 -1        91 2.17888E-05 5.51627E-04 2.65440E-04
 -1        92-3.59813E-05 2.21550E-04 1.72931E-04
 -1        98 0.00000E+00 0.00000E+00 0.00000E+00
 -1        99 0.00000E+00 0.00000E+00 0.00000E+00
 -1       100 0.00000E+00 0.00000E+00 0.00000E+00
 -1       101 0.00000E+00 0.00000E+00 0.00000E+00
 -1       102 0.00000E+00 0.00000E+00 0.00000E+00
 -1       124-5.20490E-06 8.96197E-04-1.30124E-04
 -1       125-1.11668E-07 1.07288E-03-1.39665E-04
 -1       126 5.72014E-06 8.96568E-04-1.30722E-04
 -1       127 3.99342E-07 7.92958E-04-2.53240E-04
 -1       128 6.93018E-09 5.87047E-04-2.81958E-04
 -1       129-4.71704E-08 5.41924E-04-2.85821E-04
 -1       130 1.69876E-07 5.86977E-04-2.81775E-04
 -1       131 4.65217E-08 2.30460E-04-1.68998E-04
 -1       153 6.27576E-05 1.15119E-03-6.06313E-05
 -1       154 4.53285E-06 9.84188E-04-1.65950E-06
 -1       155-5.74591E-05 1.15111E-03 6.39661E-05
 -1       156-4.52441E-07 8.57188E-04 4.03374E-06
 -1       157-1.05456E-05 4.81879E-04-1.14397E-04
 -1       158 8.39208E-07 4.90429E-04-5.98781E-07
 -1       159 1.03637E-05 4.79719E-04 1.12827E-04
 -1       160-1.72523E-07 1.91401E-04-4.87106E-07
 -1       182-1.41332E-05 8.89407E-04 1.32866E-04
 -1       183 8.26673E-07 1.08909E-03 1.36462E-04
 -1       184 1.49399E-05 8.89224E-04 1.32117E-04
 -1       185 1.66317E-08 7.90108E-04 2.55041E-04
 -1       186 8.94380E-07 5.88977E-04 2.80914E-04
 -1       187 3.05763E-07 5.43367E-04 2.83717E-04
 -1       188-5.92773E-07 5.89071E-04 2.80925E-04
 -1       189 1.80808E-08 2.30345E-04 1.68338E-04
 -1       211 5.74672E-05 1.15076E-03 6.37267E-05
 -1       212-4.49719E-06 9.83450E-04-1.52135E-06
 -1       213-6.21467E-05 1.15066E-03-6.05209E-05
 -1       214 1.11129E-06 8.57339E-04 3.89491E-06
 -1       215-1.03160E-05 4.79746E-04 1.12631E-04
 -1       216-7.50077E-07 4.90361E-04-8.18932E-07
 -1       217 1.08276E-05 4.81884E-04-1.14565E-04
 -1       218 2.84073E-07 1.91431E-04-6.52802E-07
 -1       250 1.43174E-07 1.16438E-03-6.06421E-05
 -1       251-8.35795E-06 7.37977E-04-2.55665E-06
 -1       252 5.04921E-07 9.49718E-04 9.92817E-06
 -1       253 8.90620E-06 7.38374E-04-2.20581E-06
 -1       254 7.28498E-07 1.17588E-03 6.17576E-05
 -1       255 1.42052E-07 8.28282E-04-6.67777E-07
 -1       256 9.47852E-08 4.82772E-04-1.24828E-04
 -1       257 1.27005E-06 5.55288E-04 5.63594E-07
 -1       258 2.08191E-07 5.04647E-04-1.17669E-06
 -1       259-1.02082E-06 5.55316E-04 5.76123E-07
 -1       260 2.45570E-07 4.82453E-04 1.25031E-04
 -1       261 2.36250E-08 2.14114E-04-7.84476E-07
 -3
    1PSTEP                         5           5           1          
  100CL  105 1.25000E-02          81                     1    5           1
 -4  DISP        4    1
 -5  D1          1    2    1    0
 -5  D2          1    2    2    0
 -5  D3          1    2    3    0
 -5  ALL         1    2    0    0    1ALL
 -1         5 0.00000E+00 0.00000E+00 0.00000E+00
 -1         6 0.00000E+00 0.00000E+00 0.00000E+00
 -1         7 0.00000E+00 0.00000E+00 0.00000E+00
 -1         8 0.00000E+00 0.00000E+00 0.00000E+00
 -1        21 0.00000E+00 0.00000E+00 0.00000E+00
 -1        22 0.00000E+00 0.00000E+00 0.00000E+00
 -1        23 0.00000E+00 0.00000E+00 0.00000E+00
 -1        24 0.00000E+00 0.00000E+00 0.00000E+00
 -1        25 0.00000E+00 0.00000E+00 0.00000E+00
 -1        26 0.00000E+00 0.00000E+00 0.00000E+00
 -1        27 0.00000E+00 0.00000E+00 0.00000E+00
 -1        28 0.00000E+00 0.00000E+00 0.00000E+00
 -1        29 0.00000E+00 0.00000E+00 0.00000E+00
 -1        30 0.00000E+00 0.00000E+00 0.00000E+00
 -1        31 0.00000E+00 0.00000E+00 0.00000E+00
 -1        32 0.00000E+00 0.00000E+00 0.00000E+00
 -1        44 7.22784E-05-7.66672E-04 1.14564E-04
 -1        45 2.00601E-05-5.97374E-04 1.76352E-04
 -1        46-2.00289E-05-4.32281E-04 2.12908E-04
 -1        47 2.63254E-05-1.72672E-04 1.36833E-04
 -1        48-2.62376E-05-1.72645E-04 1.36903E-04
 -1        49 2.10597E-05-4.31993E-04 2.12708E-04
 -1        50-1.97857E-05-5.97520E-04 1.76202E-04
 -1        51-6.96007E-05-7.67403E-04 1.14145E-04
 -1        74-5.40078E-05-7.80128E-04-1.14765E-04
 -1        75-1.25217E-05-5.94538E-04-1.85651E-04
 -1        76 1.61318E-05-4.34572E-04-2.06728E-04
 -1        77-2.75145E-05-1.72763E-04-1.33303E-04
 -1        89 5.38125E-05-7.80009E-04-1.14584E-04
 -1        90 1.44449E-05-5.94931E-04-1.86396E-04
 -1        91-1.61825E-05-4.34233E-04-2.07403E-04
 -1        92 2.77925E-05-1.72870E-04-1.33869E-04
 -1        98 0.00000E+00 0.00000E+00 0.00000E+00
 -1        99 0.00000E+00 0.00000E+00 0.00000E+00
 -1       100 0.00000E+00 0.00000E+00 0.00000E+00
 -1       101 0.00000E+00 0.00000E+00 0.00000E+00
 -1       102 0.00000E+00 0.00000E+00 0.00000E+00
 -1       124 5.17497E-06-7.07695E-04 1.14785E-04
 -1       125-3.42458E-07-8.58037E-04 1.09573E-04
 -1       126-4.17365E-06-7.07008E-04 1.13462E-04
 -1       127 8.99247E-07-6.17745E-04 2.06848E-04
 -1       128 4.59438E-07-4.57454E-04 2.22767E-04
 -1       129-1.01530E-07-4.24856E-04 2.27082E-04
 -1       130-5.20275E-08-4.57647E-04 2.23160E-04
 -1       131 1.07682E-07-1.77116E-04 1.31941E-04
 -1       153-5.14411E-05-9.05659E-04 5.66668E-05
 -1       154 1.12282E-05-7.93310E-04-2.93967E-06
 -1       155 5.94659E-05-9.24769E-04-4.31739E-05
 -1       156-1.47316E-06-6.77302E-04 4.14559E-06
 -1       157 1.18768E-05-3.71379E-04 8.97414E-05
 -1       158 1.31798E-06-3.76003E-04-5.63337E-07
 -1       159-9.38263E-06-3.69584E-04-9.14007E-05
 -1       160-1.59530E-08-1.44383E-04-2.65474E-07
 -1       182 1.17489E-05-7.07324E-04-1.04802E-04
 -1       183 1.96294E-06-8.50267E-04-1.15957E-04
 -1       184-9.87207E-06-7.07698E-04-1.06580E-04
 -1       185-1.33952E-09-6.23732E-04-2.05042E-04
 -1       186-1.08927E-06-4.56679E-04-2.23732E-04
 -1       187 7.10472E-07-4.19907E-04-2.27690E-04
 -1       188 1.76595E-06-4.56437E-04-2.23691E-04
 -1       189 3.55169E-08-1.76832E-04-1.31840E-04
 -1       211-5.94542E-05-9.25621E-04-4.38394E-05
 -1       212-1.11652E-05-7.95219E-04-2.61834E-06
 -1       213 5.26773E-05-9.06847E-04 5.71338E-05
 -1       214 2.93771E-06-6.76859E-04 3.84056E-06
 -1       215 9.45983E-06-3.69544E-04-9.18178E-05
 -1       216-1.11300E-06-3.76252E-04-1.05095E-06
 -1       217-1.12264E-05-3.71379E-04 8.93331E-05
 -1       218 2.67040E-07-1.44308E-04-6.30122E-07
 -1       250 2.68837E-07-9.38359E-04 4.98803E-05
 -1       251-7.13983E-06-5.75739E-04-6.42952E-06
 -1       252 1.11886E-06-7.58365E-04 1.12251E-05
 -1       253 8.34868E-06-5.74693E-04-5.65937E-06
 -1       254 1.68804E-06-9.25453E-04-5.42153E-05
 -1       255 3.16607E-07-6.52885E-04 9.43048E-07
 -1       256 2.13011E-07-3.72007E-04 1.00299E-04
 -1       257 3.37608E-07-4.32973E-04 1.61651E-06
 -1       258 4.64560E-07-3.88078E-04-1.35887E-06
 -1       259 2.21264E-07-4.32867E-04 1.64402E-06
 -1       260 5.60427E-07-3.71618E-04-9.86764E-05
 -1       261 5.51055E-08-1.63323E-04-1.51521E-06
 -3
    1PSTEP                         6           6           1          
  100CL  106 1.50000E-02          81                     1    6           1
 -4  DISP        4    1
 -5  D1          1    2    1    0
 -5  D2          1    2    2    0
 -5  D3          1    2    3    0
 -5  ALL         1    2    0    0    1ALL
 -1         5 0.00000E+00 0.00000E+00 0.00000E+00
 -1         6 0.00000E+00 0.00000E+00 0.00000E+00
 -1         7 0.00000E+00 0.00000E+00 0.00000E+00
 -1         8 0.00000E+00 0.00000E+00 0.00000E+00
 -1        21 0.00000E+00 0.00000E+00 0.00000E+00
 -1        22 0.00000E+00 0.00000E+00 0.00000E+00
 -1        23 0.00000E+00 0.00000E+00 0.00000E+00
 -1        24 0.00000E+00 0.00000E+00 0.00000E+00
 -1        25 0.00000E+00 0.00000E+00 0.00000E+00
 -1        26 0.00000E+00 0.00000E+00 0.00000E+00
 -1        27 0.00000E+00 0.00000E+00 0.00000E+00
 -1        28 0.00000E+00 0.00000E+00 0.00000E+00
 -1        29 0.00000E+00 0.00000E+00 0.00000E+00
 -1        30 0.00000E+00 0.00000E+00 0.00000E+00
 -1        31 0.00000E+00 0.00000E+00 0.00000E+00
 -1        32 0.00000E+00 0.00000E+00 0.00000E+00
 -1        44-3.18340E-05 5.12478E-04-7.07753E-05
 -1        45-6.93216E-06 4.00388E-04-1.13176E-04
 -1        46 1.21113E-05 2.94594E-04-1.36802E-04
 -1        47-1.84448E-05 1.20542E-04-9.08203E-05