    1C
    1UUSER                                                              
    1UDATE              18.july.2018                                    
    1UTIME              00:52:11                                        
    1UHOST                                                              
    1UPGM               CalculiX                                        
    1UVERSION           Version 2.13                             
    1UCOMPILETIME       jue jun 14 00:40:39 CEST 2018                    
    1UDIR                                                               
    1UDBN                                                               
    1UMAT    1EL                                                        
    2C                           201                                     1
 -1         1 0.00000E+00 0.00000E+00 0.00000E+00
 -1         2 1.00000E+00 0.00000E+00 0.00000E+00
 -1         3 1.00000E+00 1.00000E+00 0.00000E+00
 -1         4 0.00000E+00 1.00000E+00 0.00000E+00
 -1         9 2.50000E-01 0.00000E+00 0.00000E+00
 -1        10 5.00000E-01 0.00000E+00 0.00000E+00
 -1        11 7.50000E-01 0.00000E+00 0.00000E+00
 -1        12 1.00000E+00 2.50000E-01 0.00000E+00
 -1        13 1.00000E+00 5.00000E-01 0.00000E+00
 -1        14 1.00000E+00 7.50000E-01 0.00000E+00
 -1        15 7.50000E-01 1.00000E+00 0.00000E+00
 -1        16 5.00000E-01 1.00000E+00 0.00000E+00
 -1        17 2.50000E-01 1.00000E+00 0.00000E+00
 -1        18 0.00000E+00 7.50000E-01 0.00000E+00
 -1        19 0.00000E+00 5.00000E-01 0.00000E+00
 -1        20 0.00000E+00 2.50000E-01 0.00000E+00
 -1        33 1.00000E+00 0.00000E+00 5.00000E-01
 -1        34 1.00000E+00 0.00000E+00 1.00000E+00
 -1        35 1.00000E+00 0.00000E+00 1.50000E+00
 -1        36 1.00000E+00 0.00000E+00 2.00000E+00
 -1        37 1.00000E+00 0.00000E+00 2.50000E+00
 -1        38 1.00000E+00 0.00000E+00 3.00000E+00
 -1        39 1.00000E+00 0.00000E+00 3.50000E+00
 -1        40 1.00000E+00 0.00000E+00 4.00000E+00
 -1        41 1.00000E+00 0.00000E+00 4.50000E+00
 -1        42 1.00000E+00 0.00000E+00 5.00000E+00
 -1        43 1.00000E+00 0.00000E+00 5.50000E+00
 -1        44 1.00000E+00 0.00000E+00 6.00000E+00
 -1        51 0.00000E+00 0.00000E+00 6.00000E+00
 -1        52 0.00000E+00 0.00000E+00 5.50000E+00
 -1        53 0.00000E+00 0.00000E+00 5.00000E+00
 -1        54 0.00000E+00 0.00000E+00 4.50000E+00
 -1        55 0.00000E+00 0.00000E+00 4.00000E+00
 -1        56 0.00000E+00 0.00000E+00 3.50000E+00
 -1        57 0.00000E+00 0.00000E+00 3.00000E+00
 -1        58 0.00000E+00 0.00000E+00 2.50000E+00
 -1        59 0.00000E+00 0.00000E+00 2.00000E+00
 -1        60 0.00000E+00 0.00000E+00 1.50000E+00
 -1        61 0.00000E+00 0.00000E+00 1.00000E+00
 -1        62 0.00000E+00 0.00000E+00 5.00000E-01
 -1        63 1.00000E+00 1.00000E+00 5.00000E-01
 -1        64 1.00000E+00 1.00000E+00 1.00000E+00
 -1        65 1.00000E+00 1.00000E+00 1.50000E+00
 -1        66 1.00000E+00 1.00000E+00 2.00000E+00
 -1        67 1.00000E+00 1.00000E+00 2.50000E+00
 -1        68 1.00000E+00 1.00000E+00 3.00000E+00
 -1        69 1.00000E+00 1.00000E+00 3.50000E+00
 -1        70 1.00000E+00 1.00000E+00 4.00000E+00
 -1        71 1.00000E+00 1.00000E+00 4.50000E+00
 -1        72 1.00000E+00 1.00000E+00 5.00000E+00
 -1        73 1.00000E+00 1.00000E+00 5.50000E+00
 -1        74 1.00000E+00 1.00000E+00 6.00000E+00
 -1        78 0.00000E+00 1.00000E+00 5.00000E-01
 -1        79 0.00000E+00 1.00000E+00 1.00000E+00
 -1        80 0.00000E+00 1.00000E+00 1.50000E+00
 -1        81 0.00000E+00 1.00000E+00 2.00000E+00
 -1        82 0.00000E+00 1.00000E+00 2.50000E+00
 -1        83 0.00000E+00 1.00000E+00 3.00000E+00
 -1        84 0.00000E+00 1.00000E+00 3.50000E+00
 -1        85 0.00000E+00 1.00000E+00 4.00000E+00
 -1        86 0.00000E+00 1.00000E+00 4.50000E+00
 -1        87 0.00000E+00 1.00000E+00 5.00000E+00
 -1        88 0.00000E+00 1.00000E+00 5.50000E+00
 -1        89 0.00000E+00 1.00000E+00 6.00000E+00
 -1        93 5.00000E-01 2.50000E-01 0.00000E+00
 -1        94 2.50000E-01 5.00000E-01 0.00000E+00
 -1        95 5.00000E-01 5.00000E-01 0.00000E+00
 -1        96 7.50000E-01 5.00000E-01 0.00000E+00
 -1        97 5.00000E-01 7.50000E-01 0.00000E+00
 -1       103 5.00000E-01 0.00000E+00 5.00000E-01
 -1       104 2.50000E-01 0.00000E+00 1.00000E+00
 -1       105 5.00000E-01 0.00000E+00 1.00000E+00
 -1       106 7.50000E-01 0.00000E+00 1.00000E+00
 -1       107 5.00000E-01 0.00000E+00 1.50000E+00
 -1       108 2.50000E-01 0.00000E+00 2.00000E+00
 -1       109 5.00000E-01 0.00000E+00 2.00000E+00
 -1       110 7.50000E-01 0.00000E+00 2.00000E+00
 -1       111 5.00000E-01 0.00000E+00 2.50000E+00
 -1       112 2.50000E-01 0.00000E+00 3.00000E+00
 -1       113 5.00000E-01 0.00000E+00 3.00000E+00
 -1       114 7.50000E-01 0.00000E+00 3.00000E+00
 -1       115 5.00000E-01 0.00000E+00 3.50000E+00
 -1       116 2.50000E-01 0.00000E+00 4.00000E+00
 -1       117 5.00000E-01 0.00000E+00 4.00000E+00
 -1       118 7.50000E-01 0.00000E+00 4.00000E+00
 -1       119 5.00000E-01 0.00000E+00 4.50000E+00
 -1       120 2.50000E-01 0.00000E+00 5.00000E+00
 -1       121 5.00000E-01 0.00000E+00 5.00000E+00
 -1       122 7.50000E-01 0.00000E+00 5.00000E+00
 -1       123 5.00000E-01 0.00000E+00 5.50000E+00
 -1       124 2.50000E-01 0.00000E+00 6.00000E+00
 -1       125 5.00000E-01 0.00000E+00 6.00000E+00
 -1       126 7.50000E-01 0.00000E+00 6.00000E+00
 -1       132 1.00000E+00 5.00000E-01 5.00000E-01
 -1       133 1.00000E+00 2.50000E-01 1.00000E+00
 -1       134 1.00000E+00 5.00000E-01 1.00000E+00
 -1       135 1.00000E+00 7.50000E-01 1.00000E+00
 -1       136 1.00000E+00 5.00000E-01 1.50000E+00
 -1       137 1.00000E+00 2.50000E-01 2.00000E+00
 -1       138 1.00000E+00 5.00000E-01 2.00000E+00
 -1       139 1.00000E+00 7.50000E-01 2.00000E+00
 -1       140 1.00000E+00 5.00000E-01 2.50000E+00
 -1       141 1.00000E+00 2.50000E-01 3.00000E+00
 -1       142 1.00000E+00 5.00000E-01 3.00000E+00
 -1       143 1.00000E+00 7.50000E-01 3.00000E+00
 -1       144 1.00000E+00 5.00000E-01 3.50000E+00
 -1       145 1.00000E+00 2.50000E-01 4.00000E+00
 -1       146 1.00000E+00 5.00000E-01 4.00000E+00
 -1       147 1.00000E+00 7.50000E-01 4.00000E+00
 -1       148 1.00000E+00 5.00000E-01 4.50000E+00
 -1       149 1.00000E+00 2.50000E-01 5.00000E+00
 -1       150 1.00000E+00 5.00000E-01 5.00000E+00
 -1       151 1.00000E+00 7.50000E-01 5.00000E+00
 -1       152 1.00000E+00 5.00000E-01 5.50000E+00
 -1       153 1.00000E+00 2.50000E-01 6.00000E+00
 -1       154 1.00000E+00 5.00000E-01 6.00000E+00
 -1       155 1.00000E+00 7.50000E-01 6.00000E+00
 -1       161 5.00000E-01 1.00000E+00 5.00000E-01
 -1       162 7.50000E-01 1.00000E+00 1.00000E+00
 -1       163 5.00000E-01 1.00000E+00 1.00000E+00
 -1       164 2.50000E-01 1.00000E+00 1.00000E+00
 -1       165 5.00000E-01 1.00000E+00 1.50000E+00
 -1       166 7.50000E-01 1.00000E+00 2.00000E+00
 -1       167 5.00000E-01 1.00000E+00 2.00000E+00
 -1       168 2.50000E-01 1.00000E+00 2.00000E+00
 -1       169 5.00000E-01 1.00000E+00 2.50000E+00
 -1       170 7.50000E-01 1.00000E+00 3.00000E+00
 -1       171 5.00000E-01 1.00000E+00 3.00000E+00
 -1       172 2.50000E-01 1.00000E+00 3.00000E+00
 -1       173 5.00000E-01 1.00000E+00 3.50000E+00
 -1       174 7.50000E-01 1.00000E+00 4.00000E+00
 -1       175 5.00000E-01 1.00000E+00 4.00000E+00
 -1       176 2.50000E-01 1.00000E+00 4.00000E+00
 -1       177 5.00000E-01 1.00000E+00 4.50000E+00
 -1       178 7.50000E-01 1.00000E+00 5.00000E+00
 -1       179 5.00000E-01 1.00000E+00 5.00000E+00
 -1       180 2.50000E-01 1.00000E+00 5.00000E+00
 -1       181 5.00000E-01 1.00000E+00 5.50000E+00
 -1       182 7.50000E-01 1.00000E+00 6.00000E+00
 -1       183 5.00000E-01 1.00000E+00 6.00000E+00
 -1       184 2.50000E-01 1.00000E+00 6.00000E+00
 -1       190 0.00000E+00 5.00000E-01 5.00000E-01
 -1       191 0.00000E+00 7.50000E-01 1.00000E+00
 -1       192 0.00000E+00 5.00000E-01 1.00000E+00
 -1       193 0.00000E+00 2.50000E-01 1.00000E+00
 -1       194 0.00000E+00 5.00000E-01 1.50000E+00
 -1       195 0.00000E+00 7.50000E-01 2.00000E+00
 -1       196 0.00000E+00 5.00000E-01 2.00000E+00
 -1       197 0.00000E+00 2.50000E-01 2.00000E+00
 -1       198 0.00000E+00 5.00000E-01 2.50000E+00
 -1       199 0.00000E+00 7.50000E-01 3.00000E+00
 -1       200 0.00000E+00 5.00000E-01 3.00000E+00
 -1       201 0.00000E+00 2.50000E-01 3.00000E+00
 -1       202 0.00000E+00 5.00000E-01 3.50000E+00
 -1       203 0.00000E+00 7.50000E-01 4.00000E+00
 -1       204 0.00000E+00 5.00000E-01 4.00000E+00
 -1       205 0.00000E+00 2.50000E-01 4.00000E+00
 -1       206 0.00000E+00 5.00000E-01 4.50000E+00
 -1       207 0.00000E+00 7.50000E-01 5.00000E+00
 -1       208 0.00000E+00 5.00000E-01 5.00000E+00
 -1       209 0.00000E+00 2.50000E-01 5.00000E+00
 -1       210 0.00000E+00 5.00000E-01 5.50000E+00
 -1       211 0.00000E+00 7.50000E-01 6.00000E+00
 -1       212 0.00000E+00 5.00000E-01 6.00000E+00
 -1       213 0.00000E+00 2.50000E-01 6.00000E+00
 -1       219 5.00000E-01 5.00000E-01 5.00000E-01
 -1       220 5.00000E-01 2.50000E-01 1.00000E+00
 -1       221 2.50000E-01 5.00000E-01 1.00000E+00
 -1       222 5.00000E-01 5.00000E-01 1.00000E+00
 -1       223 7.50000E-01 5.00000E-01 1.00000E+00
 -1       224 5.00000E-01 7.50000E-01 1.00000E+00
 -1       225 5.00000E-01 5.00000E-01 1.50000E+00
 -1       226 5.00000E-01 2.50000E-01 2.00000E+00
 -1       227 2.50000E-01 5.00000E-01 2.00000E+00
 -1       228 5.00000E-01 5.00000E-01 2.00000E+00
 -1       229 7.50000E-01 5.00000E-01 2.00000E+00
 -1       230 5.00000E-01 7.50000E-01 2.00000E+00
 -1       231 5.00000E-01 5.00000E-01 2.50000E+00
 -1       232 5.00000E-01 2.50000E-01 3.00000E+00
 -1       233 2.50000E-01 5.00000E-01 3.00000E+00
 -1       234 5.00000E-01 5.00000E-01 3.00000E+00
 -1       235 7.50000E-01 5.00000E-01 3.00000E+00
 -1       236 5.00000E-01 7.50000E-01 3.00000E+00
 -1       237 5.00000E-01 5.00000E-01 3.50000E+00
 -1       238 5.00000E-01 2.50000E-01 4.00000E+00
 -1       239 2.50000E-01 5.00000E-01 4.00000E+00
 -1       240 5.00000E-01 5.00000E-01 4.00000E+00
 -1       241 7.50000E-01 5.00000E-01 4.00000E+00
 -1       242 5.00000E-01 7.50000E-01 4.00000E+00
 -1       243 5.00000E-01 5.00000E-01 4.50000E+00
 -1       244 5.00000E-01 2.50000E-01 5.00000E+00
 -1       245 2.50000E-01 5.00000E-01 5.00000E+00
 -1       246 5.00000E-01 5.00000E-01 5.00000E+00
 -1       247 7.50000E-01 5.00000E-01 5.00000E+00
 -1       248 5.00000E-01 7.50000E-01 5.00000E+00
 -1       249 5.00000E-01 5.00000E-01 5.50000E+00
 -1       250 5.00000E-01 2.50000E-01 6.00000E+00
 -1       251 2.50000E-01 5.00000E-01 6.00000E+00
 -1       252 5.00000E-01 5.00000E-01 6.00000E+00
 -1       253 7.50000E-01 5.00000E-01 6.00000E+00
 -1       254 5.00000E-01 7.50000E-01 6.00000E+00
 -3
    3C                            24                                     1
 -1         1    4    0    1
 -2         1        10        95        19        61       105       222       192         9        93
 -2        94        20        62       103       219       190       104       220       221       193
 -1         2    4    0    1
 -2        10         2        13        95       105        34       134       222        11        12
 -2        96        93       103        33       132       219       106       133       223       220
 -1         3    4    0    1
 -2        19        95        16         4       192       222       163        79        94        97
 -2        17        18       190       219       161        78       221       224       164       191
 -1         4    4    0    1
 -2        95        13         3        16       222       134        64       163        96        14
 -2        15        97       219       132        63       161       223       135       162       224
 -1         5    4    0    1
 -2        61       105       222       192        59       109       228       196       104       220
 -2       221       193        60       107       225       194       108       226       227       197
 -1         6    4    0    1
 -2       105        34       134       222       109        36       138       228       106       133
 -2       223       220       107        35       136       225       110       137       229       226
 -1         7    4    0    1
 -2       192       222       163        79       196       228       167        81       221       224
 -2       164       191       194       225       165        80       227       230       168       195
 -1         8    4    0    1
 -2       222       134        64       163       228       138        66       167       223       135
 -2       162       224       225       136        65       165       229       139       166       230
 -1         9    4    0    1
 -2        59       109       228       196        57       113       234       200       108       226
 -2       227       197        58       111       231       198       112       232       233       201
 -1        10    4    0    1
 -2       109        36       138       228       113        38       142       234       110       137
 -2       229       226       111        37       140       231       114       141       235       232
 -1        11    4    0    1
 -2       196       228       167        81       200       234       171        83       227       230
 -2       168       195       198       231       169        82       233       236       172       199
 -1        12    4    0    1
 -2       228       138        66       167       234       142        68       171       229       139
 -2       166       230       231       140        67       169       235       143       170       236
 -1        13    4    0    1
 -2        57       113       234       200        55       117       240       204       112       232
 -2       233       201        56       115       237       202       116       238       239       205
 -1        14    4    0    1
 -2       113        38       142       234       117        40       146       240       114       141
 -2       235       232       115        39       144       237       118       145       241       238
 -1        15    4    0    1
 -2       200       234       171        83       204       240       175        85       233       236
 -2       172       199       202       237       173        84       239       242       176       203
 -1        16    4    0    1
 -2       234       142        68       171       240       146        70       175       235       143
 -2       170       236       237       144        69       173       241       147       174       242
 -1        17    4    0    1
 -2        55       117       240       204        53       121       246       208       116       238
 -2       239       205        54       119       243       206       120       244       245       209
 -1        18    4    0    1
 -2       117        40       146       240       121        42       150       246       118       145
 -2       241       238       119        41       148       243       122       149       247       244
 -1        19    4    0    1
 -2       204       240       175        85       208       246       179        87       239       242
 -2       176       203       206       243       177        86       245       248       180       207
 -1        20    4    0    1
 -2       240       146        70       175       246       150        72       179       241       147
 -2       174       242       243       148        71       177       247       151       178       248
 -1        21    4    0    1
 -2        53       121       246       208        51       125       252       212       120       244
 -2       245       209        52       123       249       210       124       250       251       213
 -1        22    4    0    1
 -2       121        42       150       246       125        44       154       252       122       149
 -2       247       244       123        43       152       249       126       153       253       250
 -1        23    4    0    1
 -2       208       246       179        87       212       252       183        89       245       248
 -2       180       207       210       249       181        88       251       254       184       211
 -1        24    4    0    1
 -2       246       150        72       179       252       154        74       183       247       151
 -2       178       248       249       152        73       181       253       155       182       254
 -3
    1PSTEP                         1           1           1          
  100CL  101 5.00000E-03         201                     1    1           1
 -4  DISP        4    1
 -5  D1          1    2    1    0
 -5  D2          1    2    2    0
 -5  D3          1    2    3    0
 -5  ALL         1    2    0    0    1ALL
 -1         1 0.00000E+00 0.00000E+00 0.00000E+00
 -1         2 0.00000E+00 0.00000E+00 0.00000E+00
 -1         3 0.00000E+00 0.00000E+00 0.00000E+00
 -1         4 0.00000E+00 0.00000E+00 0.00000E+00
 -1         9 0.00000E+00 0.00000E+00 0.00000E+00
 -1        10 0.00000E+00 0.00000E+00 0.00000E+00
 -1        11 0.00000E+00 0.00000E+00 0.00000E+00
 -1        12 0.00000E+00 0.00000E+00 0.00000E+00
 -1        13 0.00000E+00 0.00000E+00 0.00000E+00
 -1        14 0.00000E+00 0.00000E+00 0.00000E+00
 -1        15 0.00000E+00 0.00000E+00 0.00000E+00
 -1        16 0.00000E+00 0.00000E+00 0.00000E+00
 -1        17 0.00000E+00 0.00000E+00 0.00000E+00
 -1        18 0.00000E+00 0.00000E+00 0.00000E+00
 -1        19 0.00000E+00 0.00000E+00 0.00000E+00
 -1        20 0.00000E+00 0.00000E+00 0.00000E+00
 -1        33 9.22158E-05-1.48637E-04-1.84767E-04
 -1        34 3.87129E-05-4.59820E-04-3.62654E-04
 -1        35 3.58026E-05-9.46561E-04-4.74598E-04
 -1        36 1.29837E-05-1.49813E-03-5.40444E-04
 -1        37-9.41002E-06-2.08432E-03-5.42789E-04
 -1        38-3.72030E-05-2.66520E-03-5.08665E-04
 -1        39-4.60775E-05-3.15369E-03-3.74032E-04
 -1        40-2.74460E-05-3.48865E-03-2.26500E-04
 -1        41-1.15719E-04-3.57458E-03-7.61917E-05
 -1        42-2.39879E-04-3.73021E-03-1.03212E-04
 -1        43 3.23051E-04-3.23395E-03 2.02181E-04
 -1        44 6.82448E-04-2.79539E-03 4.78521E-04
 -1        51-6.82554E-04-2.79542E-03 4.78608E-04
 -1        52-3.23215E-04-3.23393E-03 2.02250E-04
 -1        53 2.39654E-04-3.73021E-03-1.03187E-04
 -1        54 1.15499E-04-3.57458E-03-7.61842E-05
 -1        55 2.72188E-05-3.48865E-03-2.26509E-04
 -1        56 4.58753E-05-3.15368E-03-3.74051E-04
 -1        57 3.70257E-05-2.66520E-03-5.08695E-04
 -1        58 9.27104E-06-2.08432E-03-5.42822E-04
 -1        59-1.30854E-05-1.49813E-03-5.40479E-04
 -1        60-3.58666E-05-9.46563E-04-4.74629E-04
 -1        61-3.87445E-05-4.59822E-04-3.62678E-04
 -1        62-9.22259E-05-1.48643E-04-1.84780E-04
 -1        63-9.01540E-05-1.45845E-04 1.80603E-04
 -1        64-3.83519E-05-4.58763E-04 3.53803E-04
 -1        65-3.22537E-05-9.45483E-04 4.61334E-04
 -1        66-1.17460E-05-1.50528E-03 5.23819E-04
 -1        67 8.72173E-06-2.07192E-03 5.20516E-04
 -1        68 2.82333E-05-2.66291E-03 4.79304E-04
 -1        69 6.68682E-05-3.16776E-03 3.39587E-04
 -1        70 5.72355E-05-3.59204E-03 1.93807E-04
 -1        71 4.64540E-05-3.42392E-03 3.26606E-05
 -1        72 2.20444E-05-3.40184E-03 2.60844E-05
 -1        73 3.38764E-05-3.75958E-03-3.00435E-04
 -1        74-2.56457E-04-3.95562E-03-5.36713E-04
 -1        78 9.01438E-05-1.45839E-04 1.80590E-04
 -1        79 3.83201E-05-4.58760E-04 3.53779E-04
 -1        80 3.21895E-05-9.45481E-04 4.61303E-04
 -1        81 1.16439E-05-1.50528E-03 5.23784E-04
 -1        82-8.86109E-06-2.07193E-03 5.20482E-04
 -1        83-2.84113E-05-2.66292E-03 4.79275E-04
 -1        84-6.70709E-05-3.16777E-03 3.39568E-04
 -1        85-5.74635E-05-3.59205E-03 1.93798E-04
 -1        86-4.66752E-05-3.42393E-03 3.26682E-05
 -1        87-2.22707E-05-3.40184E-03 2.61093E-05
 -1        88-3.40409E-05-3.75960E-03-3.00365E-04
 -1        89 2.56349E-04-3.95559E-03-5.36626E-04
 -1        93 0.00000E+00 0.00000E+00 0.00000E+00
 -1        94 0.00000E+00 0.00000E+00 0.00000E+00
 -1        95 0.00000E+00 0.00000E+00 0.00000E+00
 -1        96 0.00000E+00 0.00000E+00 0.00000E+00
 -1        97 0.00000E+00 0.00000E+00 0.00000E+00
 -1       103-3.49556E-09-1.86091E-04-1.81386E-04
 -1       104-1.97410E-05-4.86377E-04-3.71275E-04
 -1       105-1.53424E-08-4.90768E-04-3.74175E-04
 -1       106 1.97106E-05-4.86375E-04-3.71264E-04
 -1       107-3.14226E-08-9.59742E-04-4.78544E-04
 -1       108-4.52962E-06-1.50621E-03-5.44094E-04
 -1       109-5.02183E-08-1.52070E-03-5.43142E-04
 -1       110 4.42861E-06-1.50621E-03-5.44077E-04
 -1       111-7.03629E-08-2.06599E-03-5.44512E-04
 -1       112 1.11915E-05-2.68400E-03-5.21122E-04
 -1       113-8.72675E-08-2.68157E-03-5.28316E-04
 -1       114-1.13679E-05-2.68400E-03-5.21108E-04
 -1       115-1.03590E-07-3.11874E-03-3.87705E-04
 -1       116 4.07493E-05-3.50168E-03-2.05278E-04
 -1       117-1.09581E-07-3.63188E-03-1.73319E-04
 -1       118-4.09725E-05-3.50168E-03-2.05274E-04
 -1       119-1.16786E-07-3.44673E-03-4.32433E-05
 -1       120 3.47015E-05-3.76771E-03-1.12581E-04
 -1       121-1.02232E-07-3.66001E-03-1.61471E-04
 -1       122-3.49196E-05-3.76771E-03-1.12599E-04
 -1       123-8.99678E-08-3.51544E-03-8.32987E-05
 -1       124-6.47710E-05-3.14573E-03 4.45699E-04
 -1       125-3.13580E-08-3.87563E-03 4.73166E-04
 -1       126 6.46914E-05-3.14572E-03 4.45676E-04
 -1       132 1.14178E-06-9.94446E-05-1.86256E-06
 -1       133 2.04624E-05-4.43462E-04-1.73216E-04
 -1       134 1.22733E-06-4.48755E-04-3.76963E-06
 -1       135-1.91651E-05-4.43268E-04 1.64664E-04
 -1       136 1.70229E-07-9.22637E-04-6.91849E-06
 -1       137 4.84896E-06-1.49604E-03-2.66747E-04
 -1       138 9.70910E-07-1.49199E-03-9.53992E-06
 -1       139-3.30379E-06-1.49825E-03 2.50031E-04
 -1       140 1.96070E-06-2.09365E-03-1.12970E-05
 -1       141-7.41872E-06-2.65299E-03-2.43493E-04
 -1       142 5.76190E-06-2.64712E-03-7.61278E-06
 -1       143 9.61198E-06-2.65710E-03 2.17715E-04
 -1       144-8.80794E-06-3.20861E-03-1.67976E-05
 -1       145-5.66804E-05-3.51609E-03-1.33101E-04
 -1       146-9.81349E-06-3.46793E-03-3.10967E-05
 -1       147 5.21001E-05-3.54875E-03 9.47967E-05
 -1       148 2.37034E-05-3.58478E-03-2.72314E-05
 -1       149 7.34872E-05-3.39550E-03-4.86864E-05
 -1       150 8.42044E-05-3.24972E-03-1.42211E-05
 -1       151-6.29916E-05-3.28887E-03-2.08017E-05
 -1       152-1.27111E-04-3.84157E-03 1.39857E-05
 -1       153-3.57060E-04-3.24207E-03 1.79532E-04
 -1       154-8.48885E-05-2.91607E-03-3.14444E-05
 -1       155 3.08416E-04-3.63089E-03-2.40012E-04
 -1       161-3.53602E-09-1.83973E-04 1.77022E-04
 -1       162-1.93835E-05-4.85156E-04 3.62866E-04
 -1       163-1.54155E-08-4.87267E-04 3.64917E-04
 -1       164 1.93529E-05-4.85155E-04 3.62855E-04
 -1       165-3.15461E-08-9.59435E-04 4.66196E-04
 -1       166-4.56213E-06-1.50230E-03 5.25861E-04
 -1       167-5.03616E-08-1.51512E-03 5.27669E-04
 -1       168 4.46080E-06-1.50230E-03 5.25844E-04
 -1       169-7.05744E-08-2.06658E-03 5.19263E-04
 -1       170 9.87258E-06-2.68344E-03 4.95076E-04
 -1       171-8.74694E-08-2.64541E-03 4.92571E-04
 -1       172-1.00496E-05-2.68344E-03 4.95062E-04
 -1       173-1.03897E-07-3.14192E-03 3.61551E-04
 -1       174 4.27693E-05-3.44020E-03 1.61403E-04
 -1       175-1.09808E-07-3.55844E-03 1.54160E-04
 -1       176-4.29932E-05-3.44020E-03 1.61398E-04
 -1       177-1.17215E-07-3.39501E-03-1.96879E-05
 -1       178-3.84396E-05-3.88441E-03 7.19510E-05
 -1       179-1.02418E-07-3.46127E-03 8.93443E-05
 -1       180 3.82206E-05-3.88441E-03 7.19684E-05
 -1       181-9.05863E-08-3.72560E-03-2.79130E-05
 -1       182 2.64649E-05-2.66610E-03-4.97278E-04
 -1       183-3.10667E-08-4.74924E-03-5.03047E-04
 -1       184-2.65448E-05-2.66609E-03-4.97255E-04
 -1       190-1.15453E-06-9.94446E-05-1.87464E-06
 -1       191 1.91316E-05-4.43267E-04 1.64639E-04
 -1       192-1.26111E-06-4.48755E-04-3.79456E-06
 -1       193-2.04957E-05-4.43463E-04-1.73240E-04
 -1       194-2.35069E-07-9.22637E-04-6.94977E-06
 -1       195 3.20121E-06-1.49825E-03 2.49996E-04
 -1       196-1.07393E-06-1.49199E-03-9.57556E-06
 -1       197-4.95137E-06-1.49604E-03-2.66783E-04
 -1       198-2.09872E-06-2.09365E-03-1.13308E-05
 -1       199-9.78944E-06-2.65710E-03 2.17685E-04
 -1       200-5.93981E-06-2.64712E-03-7.64345E-06
 -1       201 7.24154E-06-2.65299E-03-2.43523E-04
 -1       202 8.60850E-06-3.20861E-03-1.68161E-05
 -1       203-5.23286E-05-3.54876E-03 9.47865E-05
 -1       204 9.58427E-06-3.46793E-03-3.11063E-05
 -1       205 5.64524E-05-3.51609E-03-1.33111E-04
 -1       206-2.39166E-05-3.58478E-03-2.72247E-05
 -1       207 6.27658E-05-3.28887E-03-2.07800E-05
 -1       208-8.44356E-05-3.24972E-03-1.42083E-05
 -1       209-7.37123E-05-3.39550E-03-4.86646E-05
 -1       210 1.26953E-04-3.84157E-03 1.40657E-05
 -1       211-3.08553E-04-3.63088E-03-2.39931E-04
 -1       212 8.47343E-05-2.91607E-03-3.13456E-05
 -1       213 3.56924E-04-3.24208E-03 1.79612E-04
 -1       219-4.76386E-09-1.36621E-04-1.66337E-06
 -1       220-1.60238E-08-4.69995E-04-1.80511E-04
 -1       221-6.20658E-07-4.70827E-04-4.58631E-06
 -1       222-1.60344E-08-4.71554E-04-4.71691E-06
 -1       223 5.88434E-07-4.70827E-04-4.57440E-06
 -1       224-1.60606E-08-4.68078E-04 1.71686E-04
 -1       225-3.20916E-08-9.39311E-04-6.56475E-06
 -1       226-5.01193E-08-1.50705E-03-2.73436E-04
 -1       227-6.03168E-07-1.49034E-03-8.72025E-06
 -1       228-5.00129E-08-1.49210E-03-1.01618E-05
 -1       229 5.01751E-07-1.49034E-03-8.70297E-06
 -1       230-5.01906E-08-1.50462E-03 2.53941E-04
 -1       231-7.04873E-08-2.09649E-03-9.80897E-06
 -1       232-8.63707E-08-2.65699E-03-2.50637E-04
 -1       233-2.79064E-06-2.64685E-03-1.57964E-05
 -1       234-8.58310E-08-2.63562E-03-1.70443E-05
 -1       235 2.61513E-06-2.64685E-03-1.57820E-05
 -1       236-8.64740E-08-2.63790E-03 2.21204E-04
 -1       237-1.03123E-07-3.16742E-03-1.30930E-05
 -1       238-1.07610E-07-3.57586E-03-1.29969E-04
 -1       239 5.82279E-06-3.41369E-03-1.85931E-05
 -1       240-1.06311E-07-3.45295E-03-2.34948E-05
 -1       241-6.04313E-06-3.41369E-03-1.85868E-05
 -1       242-1.07713E-07-3.53929E-03 8.41204E-05
 -1       243-1.17165E-07-3.58473E-03-2.68251E-05
 -1       244-9.87938E-08-3.46341E-03-2.28911E-05
 -1       245-4.23866E-05-3.53323E-03-3.72935E-05
 -1       246-9.66316E-08-3.47971E-03-2.79848E-05
 -1       247 4.21692E-05-3.53323E-03-3.73117E-05
 -1       248-9.89265E-08-3.38253E-03-1.18541E-05
 -1       249-8.89831E-08-3.57241E-03-2.17484E-05
 -1       250-2.86353E-08-4.09468E-03 1.60365E-04
 -1       251 5.29476E-05-2.51030E-03-2.28140E-05
 -1       252-2.66570E-08-3.45867E-03-2.07445E-05
 -1       253-5.30435E-05-2.51030E-03-2.28142E-05
 -1       254-2.83173E-08-4.43032E-03-2.47636E-04
 -3
    1PSTEP                         2           2           1          
  100CL  102 1.00000E-02         201                     1    2           1
 -4  DISP        4    1
 -5  D1          1    2    1    0
 -5  D2          1    2    2    0
 -5  D3          1    2    3    0
 -5  ALL         1    2    0    0    1ALL
 -1         1 0.00000E+00 0.00000E+00 0.00000E+00
 -1         2 0.00000E+00 0.00000E+00 0.00000E+00
 -1         3 0.00000E+00 0.00000E+00 0.00000E+00
 -1         4 0.00000E+00 0.00000E+00 0.00000E+00
 -1         9 0.00000E+00 0.00000E+00 0.00000E+00
 -1        10 0.00000E+00 0.00000E+00 0.00000E+00
 -1        11 0.00000E+00 0.00000E+00 0.00000E+00
 -1        12 0.00000E+00 0.00000E+00 0.00000E+00
 -1        13 0.00000E+00 0.00000E+00 0.00000E+00
 -1        14 0.00000E+00 0.00000E+00 0.00000E+00
 -1        15 0.00000E+00 0.00000E+00 0.00000E+00
 -1        16 0.00000E+00 0.00000E+00 0.00000E+00
 -1        17 0.00000E+00 0.00000E+00 0.00000E+00
 -1        18 0.00000E+00 0.00000E+00 0.00000E+00
 -1        19 0.00000E+00 0.00000E+00 0.00000E+00
 -1        20 0.00000E+00 0.00000E+00 0.00000E+00
 -1        33-4.66414E-05 7.63729E-05 9.39902E-05
 -1        34-1.91948E-05 2.35417E-04 1.83015E-04
 -1        35-1.77463E-05 4.85616E-04 2.39871E-04
 -1        36-6.13854E-06 7.65543E-04 2.71324E-04
 -1        37 5.81898E-06 1.06902E-03 2.71270E-04
 -1        38 2.14016E-05 1.36248E-03 2.45805E-04
 -1        39 2.48591E-05 1.60835E-03 1.80697E-04
 -1        40 1.31142E-05 1.77393E-03 9.91011E-05
 -1        41 5.75689E-05 1.82705E-03 2.63521E-05
 -1        42 1.09754E-04 1.84872E-03-2.29261E-05
 -1        43-1.19659E-04 1.64786E-03-1.43810E-04
 -1        44-4.19168E-04 1.36612E-03-2.52922E-04
 -1        51 4.19234E-04 1.36607E-03-2.52902E-04
 -1        52 1.19699E-04 1.64776E-03-1.43808E-04
 -1        53-1.09665E-04 1.84862E-03-2.29188E-05
 -1        54-5.75225E-05 1.82696E-03 2.63438E-05
 -1        55-1.30589E-05 1.77386E-03 9.90980E-05
 -1        56-2.48212E-05 1.60829E-03 1.80693E-04
 -1        57-2.13596E-05 1.36242E-03 2.45802E-04
 -1        58-5.78815E-06 1.06897E-03 2.71266E-04
 -1        59 6.16754E-06 7.65507E-04 2.71321E-04
 -1        60 1.77671E-05 4.85588E-04 2.39867E-04
 -1        61 1.92104E-05 2.35399E-04 1.83014E-04
 -1        62 4.66485E-05 7.63642E-05 9.39890E-05
 -1        63 4.66297E-05 7.63576E-05-9.39669E-05
 -1        64 1.91905E-05 2.35411E-04-1.82967E-04
 -1        65 1.77203E-05 4.85610E-04-2.39797E-04
 -1        66 6.12153E-06 7.65578E-04-2.71230E-04
 -1        67-5.82570E-06 1.06895E-03-2.71147E-04
 -1        68-2.13652E-05 1.36247E-03-2.45651E-04
 -1        69-2.50148E-05 1.60844E-03-1.80515E-04
 -1        70-1.33291E-05 1.77447E-03-9.89097E-05
 -1        71-5.71466E-05 1.82621E-03-2.61029E-05
 -1        72-1.08514E-04 1.84704E-03 2.32749E-05
 -1        73 1.17354E-04 1.65081E-03 1.44254E-04
 -1        74 4.16038E-04 1.37257E-03 2.53227E-04
 -1        78-4.66387E-05 7.63501E-05-9.39680E-05