    1C
    1UUSER                                                              
    1UDATE              18.july.2018                                    
    1UTIME              00:49:59                                        
    1UHOST                                                              
    1UPGM               CalculiX                                        
    1UVERSION           Version 2.13                             
    1UCOMPILETIME       jue jun 14 00:40:39 CEST 2018                    
    1UDIR                                                               
    1UDBN                                                               
    1UMAT    1EL                                                        
    2C                            81                                     1
 -1         5 0.00000E+00 0.00000E+00 8.00000E+00
 -1         6 1.00000E+00 0.00000E+00 8.00000E+00
 -1         7 1.00000E+00 1.00000E+00 8.00000E+00
 -1         8 0.00000E+00 1.00000E+00 8.00000E+00
 -1        21 2.50000E-01 0.00000E+00 8.00000E+00
 -1        22 5.00000E-01 0.00000E+00 8.00000E+00
 -1        23 7.50000E-01 0.00000E+00 8.00000E+00
 -1        24 1.00000E+00 2.50000E-01 8.00000E+00
 -1        25 1.00000E+00 5.00000E-01 8.00000E+00
 -1        26 1.00000E+00 7.50000E-01 8.00000E+00
 -1        27 7.50000E-01 1.00000E+00 8.00000E+00
 -1        28 5.00000E-01 1.00000E+00 8.00000E+00
 -1        29 2.50000E-01 1.00000E+00 8.00000E+00
 -1        30 0.00000E+00 7.50000E-01 8.00000E+00
 -1        31 0.00000E+00 5.00000E-01 8.00000E+00
 -1        32 0.00000E+00 2.50000E-01 8.00000E+00
 -1        44 1.00000E+00 0.00000E+00 6.00000E+00
 -1        45 1.00000E+00 0.00000E+00 6.50000E+00
 -1        46 1.00000E+00 0.00000E+00 7.00000E+00
 -1        47 1.00000E+00 0.00000E+00 7.50000E+00
 -1        48 0.00000E+00 0.00000E+00 7.50000E+00
 -1        49 0.00000E+00 0.00000E+00 7.00000E+00
 -1        50 0.00000E+00 0.00000E+00 6.50000E+00
 -1        51 0.00000E+00 0.00000E+00 6.00000E+00
 -1        74 1.00000E+00 1.00000E+00 6.00000E+00
 -1        75 1.00000E+00 1.00000E+00 6.50000E+00
 -1        76 1.00000E+00 1.00000E+00 7.00000E+00
 -1        77 1.00000E+00 1.00000E+00 7.50000E+00
 -1        89 0.00000E+00 1.00000E+00 6.00000E+00
 -1        90 0.00000E+00 1.00000E+00 6.50000E+00
 -1        91 0.00000E+00 1.00000E+00 7.00000E+00
 -1        92 0.00000E+00 1.00000E+00 7.50000E+00
 -1        98 5.00000E-01 2.50000E-01 8.00000E+00
 -1        99 2.50000E-01 5.00000E-01 8.00000E+00
 -1       100 5.00000E-01 5.00000E-01 8.00000E+00
 -1       101 7.50000E-01 5.00000E-01 8.00000E+00
 -1       102 5.00000E-01 7.50000E-01 8.00000E+00
 -1       124 2.50000E-01 0.00000E+00 6.00000E+00
 -1       125 5.00000E-01 0.00000E+00 6.00000E+00
 -1       126 7.50000E-01 0.00000E+00 6.00000E+00
 -1       127 5.00000E-01 0.00000E+00 6.50000E+00
 -1       128 2.50000E-01 0.00000E+00 7.00000E+00
 -1       129 5.00000E-01 0.00000E+00 7.00000E+00
 -1       130 7.50000E-01 0.00000E+00 7.00000E+00
 -1       131 5.00000E-01 0.00000E+00 7.50000E+00
 -1       153 1.00000E+00 2.50000E-01 6.00000E+00
 -1       154 1.00000E+00 5.00000E-01 6.00000E+00
 -1       155 1.00000E+00 7.50000E-01 6.00000E+00
 -1       156 1.00000E+00 5.00000E-01 6.50000E+00
 -1       157 1.00000E+00 2.50000E-01 7.00000E+00
 -1       158 1.00000E+00 5.00000E-01 7.00000E+00
 -1       159 1.00000E+00 7.50000E-01 7.00000E+00
 -1       160 1.00000E+00 5.00000E-01 7.50000E+00
 -1       182 7.50000E-01 1.00000E+00 6.00000E+00
 -1       183 5.00000E-01 1.00000E+00 6.00000E+00
 -1       184 2.50000E-01 1.00000E+00 6.00000E+00
 -1       185 5.00000E-01 1.00000E+00 6.50000E+00
 -1       186 7.50000E-01 1.00000E+00 7.00000E+00
 -1       187 5.00000E-01 1.00000E+00 7.00000E+00
 -1       188 2.50000E-01 1.00000E+00 7.00000E+00
 -1       189 5.00000E-01 1.00000E+00 7.50000E+00
 -1       211 0.00000E+00 7.50000E-01 6.00000E+00
 -1       212 0.00000E+00 5.00000E-01 6.00000E+00
 -1       213 0.00000E+00 2.50000E-01 6.00000E+00
 -1       214 0.00000E+00 5.00000E-01 6.50000E+00
 -1       215 0.00000E+00 7.50000E-01 7.00000E+00
 -1       216 0.00000E+00 5.00000E-01 7.00000E+00
 -1       217 0.00000E+00 2.50000E-01 7.00000E+00
 -1       218 0.00000E+00 5.00000E-01 7.50000E+00
 -1       250 5.00000E-01 2.50000E-01 6.00000E+00
 -1       251 2.50000E-01 5.00000E-01 6.00000E+00
 -1       252 5.00000E-01 5.00000E-01 6.00000E+00
 -1       253 7.50000E-01 5.00000E-01 6.00000E+00
 -1       254 5.00000E-01 7.50000E-01 6.00000E+00
 -1       255 5.00000E-01 5.00000E-01 6.50000E+00
 -1       256 5.00000E-01 2.50000E-01 7.00000E+00
 -1       257 2.50000E-01 5.00000E-01 7.00000E+00
 -1       258 5.00000E-01 5.00000E-01 7.00000E+00
 -1       259 7.50000E-01 5.00000E-01 7.00000E+00
 -1       260 5.00000E-01 7.50000E-01 7.00000E+00
 -1       261 5.00000E-01 5.00000E-01 7.50000E+00
 -3
    3C                             8                                     1
 -1        25    4    0    1
 -2        51       125       252       212        49       129       258       216       124       250
 -2       251       213        50       127       255       214       128       256       257       217
 -1        26    4    0    1
 -2       125        44       154       252       129        46       158       258       126       153
 -2       253       250       127        45       156       255       130       157       259       256
 -1        27    4    0    1
 -2       212       252       183        89       216       258       187        91       251       254
 -2       184       211       214       255       185        90       257       260       188       215
 -1        28    4    0    1
 -2       252       154        74       183       258       158        76       187       253       155
 -2       182       254       255       156        75       185       259       159       186       260
 -1        29    4    0    1
 -2        49       129       258       216         5        22       100        31       128       256
 -2       257       217        48       131       261       218        21        98        99        32
 -1        30    4    0    1
 -2       129        46       158       258        22         6        25       100       130       157
 -2       259       256       131        47       160       261        23        24       101        98
 -1        31    4    0    1
 -2       216       258       187        91        31       100        28         8       257       260
 -2       188       215       218       261       189        92        99       102        29        30
 -1        32    4    0    1
 -2       258       158        76       187       100        25         7        28       259       159
 -2       186       260       261       160        77       189       101        26        27       102
 -3
    1PSTEP                         1           1           1          
  100CL  101 5.00000E-03          81                     1    1           1
 -4  DISP        4    1
 -5  D1          1    2    1    0
 -5  D2          1    2    2    0
 -5  D3          1    2    3    0
 -5  ALL         1    2    0    0    1ALL
 -1         5 0.00000E+00 0.00000E+00 0.00000E+00
 -1         6 0.00000E+00 0.00000E+00 0.00000E+00
 -1         7 0.00000E+00 0.00000E+00 0.00000E+00
 -1         8 0.00000E+00 0.00000E+00 0.00000E+00
 -1        21 0.00000E+00 0.00000E+00 0.00000E+00
 -1        22 0.00000E+00 0.00000E+00 0.00000E+00
 -1        23 0.00000E+00 0.00000E+00 0.00000E+00
 -1        24 0.00000E+00 0.00000E+00 0.00000E+00
 -1        25 0.00000E+00 0.00000E+00 0.00000E+00
 -1        26 0.00000E+00 0.00000E+00 0.00000E+00
 -1        27 0.00000E+00 0.00000E+00 0.00000E+00
 -1        28 0.00000E+00 0.00000E+00 0.00000E+00
 -1        29 0.00000E+00 0.00000E+00 0.00000E+00
 -1        30 0.00000E+00 0.00000E+00 0.00000E+00
 -1        31 0.00000E+00 0.00000E+00 0.00000E+00
 -1        32 0.00000E+00 0.00000E+00 0.00000E+00
 -1        44 6.80815E-04-2.79618E-03 4.78498E-04
 -1        45 3.28747E-04-2.30041E-03 6.58546E-04
 -1        46-2.20483E-04-1.76301E-03 8.53833E-04
 -1        47 1.24834E-04-7.03564E-04 4.60872E-04
 -1        48-1.24848E-04-7.03582E-04 4.60897E-04
 -1        49 2.20406E-04-1.76304E-03 8.53902E-04
 -1        50-3.28894E-04-2.30042E-03 6.58666E-04
 -1        51-6.81167E-04-2.79623E-03 4.78721E-04
 -1        74-2.53037E-04-3.95692E-03-5.36504E-04
 -1        75 1.84038E-05-2.83029E-03-6.71016E-04
 -1        76 2.52359E-05-1.50868E-03-8.65863E-04
 -1        77-2.23823E-04-5.27818E-04-4.70147E-04
 -1        89 2.52683E-04-3.95687E-03-5.36281E-04
 -1        90-1.85505E-05-2.83028E-03-6.70896E-04
 -1        91-2.53127E-05-1.50865E-03-8.65794E-04
 -1        92 2.23810E-04-5.27801E-04-4.70121E-04
 -1        98 0.00000E+00 0.00000E+00 0.00000E+00
 -1        99 0.00000E+00 0.00000E+00 0.00000E+00
 -1       100 0.00000E+00 0.00000E+00 0.00000E+00
 -1       101 0.00000E+00 0.00000E+00 0.00000E+00
 -1       102 0.00000E+00 0.00000E+00 0.00000E+00
 -1       124-6.56900E-05-3.14544E-03 4.45643E-04
 -1       125-1.35611E-07-3.87389E-03 4.73293E-04
 -1       126 6.53894E-05-3.14542E-03 4.45567E-04
 -1       127-8.42617E-08-2.57465E-03 9.44812E-04
 -1       128 3.52217E-05-1.80099E-03 9.13249E-04
 -1       129-2.37223E-08-1.69871E-03 9.45656E-04
 -1       130-3.52827E-05-1.80097E-03 9.13206E-04
 -1       131-3.26306E-09-6.85627E-04 4.66544E-04
 -1       153-3.55972E-04-3.24068E-03 1.79457E-04
 -1       154-8.42730E-05-2.91433E-03-3.13500E-05
 -1       155 3.06511E-04-3.63086E-03-2.39948E-04
 -1       156-1.20713E-04-2.88767E-03-7.95155E-05
 -1       157 7.72443E-05-1.46300E-03 3.70945E-04
 -1       158 8.89612E-05-1.37459E-03-2.89084E-05
 -1       159-3.19489E-05-1.39473E-03-3.90369E-04
 -1       160 3.87685E-05-5.33913E-04 1.33143E-06
 -1       182 2.76796E-05-2.66551E-03-4.97053E-04
 -1       183-1.35602E-07-4.74677E-03-5.02713E-04
 -1       184-2.79807E-05-2.66549E-03-4.96977E-04
 -1       185-8.45084E-08-2.85485E-03-9.17649E-04
 -1       186-2.26758E-05-2.02758E-03-9.64040E-04
 -1       187-2.36126E-08-1.70205E-03-9.81210E-04
 -1       188 2.26148E-05-2.02757E-03-9.63997E-04
 -1       189-3.29958E-09-6.58726E-04-4.68088E-04
 -1       211-3.06883E-04-3.63084E-03-2.39755E-04
 -1       212 8.39021E-05-2.91433E-03-3.11543E-05
 -1       213 3.55601E-04-3.24070E-03 1.79650E-04
 -1       214 1.20560E-04-2.88767E-03-7.93967E-05
 -1       215 3.18667E-05-1.39472E-03-3.90295E-04
 -1       216-8.90469E-05-1.37459E-03-2.88371E-05
 -1       217-7.73264E-05-1.46301E-03 3.71020E-04
 -1       218-3.87910E-05-5.33913E-04 1.35391E-06
 -1       250-1.40923E-07-4.09384E-03 1.60566E-04
 -1       251 5.31795E-05-2.51007E-03-2.27499E-05
 -1       252-1.44093E-07-3.45705E-03-2.06514E-05
 -1       253-5.35002E-05-2.51007E-03-2.28049E-05
 -1       254-1.40773E-07-4.42766E-03-2.47278E-04
 -1       255-8.93049E-08-2.63132E-03-3.50826E-05
 -1       256-2.60986E-08-1.53723E-03 3.88162E-04
 -1       257-5.07077E-05-1.67594E-03-9.70867E-06
 -1       258-2.64655E-08-1.62498E-03-1.71533E-05
 -1       259 5.06401E-05-1.67594E-03-9.75386E-06
 -1       260-2.60738E-08-1.55856E-03-4.24194E-04
 -1       261-7.77791E-09-6.58472E-04-3.55859E-06
 -3
    1PSTEP                         2           2           1          
  100CL  102 1.00000E-02          81                     1    2           1
 -4  DISP        4    1
 -5  D1          1    2    1    0
 -5  D2          1    2    2    0
 -5  D3          1    2    3    0
 -5  ALL         1    2    0    0    1ALL
 -1         5 0.00000E+00 0.00000E+00 0.00000E+00
 -1         6 0.00000E+00 0.00000E+00 0.00000E+00
 -1         7 0.00000E+00 0.00000E+00 0.00000E+00
 -1         8 0.00000E+00 0.00000E+00 0.00000E+00
 -1        21 0.00000E+00 0.00000E+00 0.00000E+00
 -1        22 0.00000E+00 0.00000E+00 0.00000E+00
 -1        23 0.00000E+00 0.00000E+00 0.00000E+00
 -1        24 0.00000E+00 0.00000E+00 0.00000E+00
 -1        25 0.00000E+00 0.00000E+00 0.00000E+00
 -1        26 0.00000E+00 0.00000E+00 0.00000E+00
 -1        27 0.00000E+00 0.00000E+00 0.00000E+00
 -1        28 0.00000E+00 0.00000E+00 0.00000E+00
 -1        29 0.00000E+00 0.00000E+00 0.00000E+00
 -1        30 0.00000E+00 0.00000E+00 0.00000E+00
 -1        31 0.00000E+00 0.00000E+00 0.00000E+00
 -1        32 0.00000E+00 0.00000E+00 0.00000E+00
 -1        44-4.18065E-04 1.36638E-03-2.52979E-04
 -1        45-1.21081E-04 1.18363E-03-3.17699E-04
 -1        46 1.05119E-04 8.73843E-04-3.83765E-04
 -1        47-6.82804E-05 3.77265E-04-2.50463E-04
 -1        48 6.82816E-05 3.77262E-04-2.50461E-04
 -1        49-1.05119E-04 8.73830E-04-3.83755E-04
 -1        50 1.21074E-04 1.18363E-03-3.17694E-04
 -1        51 4.18068E-04 1.36634E-03-2.52967E-04
 -1        74 4.20593E-04 1.36719E-03 2.53290E-04
 -1        75 1.21986E-04 1.18355E-03 3.17804E-04
 -1        76-1.04559E-04 8.73033E-04 3.83827E-04
 -1        77 6.80878E-05 3.77104E-04 2.50503E-04
 -1        89-4.20645E-04 1.36715E-03 2.53298E-04
 -1        90-1.22007E-04 1.18355E-03 3.17817E-04
 -1        91 1.04543E-04 8.73020E-04 3.83828E-04
 -1        92-6.80936E-05 3.77104E-04 2.50506E-04
 -1        98 0.00000E+00 0.00000E+00 0.00000E+00
 -1        99 0.00000E+00 0.00000E+00 0.00000E+00
 -1       100 0.00000E+00 0.00000E+00 0.00000E+00
 -1       101 0.00000E+00 0.00000E+00 0.00000E+00
 -1       102 0.00000E+00 0.00000E+00 0.00000E+00
 -1       124 2.37266E-05 1.52496E-03-2.34694E-04
 -1       125-6.29042E-10 1.91452E-03-2.44898E-04
 -1       126-2.37269E-05 1.52498E-03-2.34714E-04
 -1       127 8.07056E-10 1.32686E-03-4.43246E-04
 -1       128-5.41499E-06 8.89193E-04-4.45484E-04
 -1       129-1.76483E-09 8.24486E-04-4.72052E-04
 -1       130 5.41369E-06 8.89199E-04-4.45487E-04
 -1       131 8.10345E-10 3.59897E-04-2.34723E-04
 -1       153 2.99771E-04 1.80386E-03-1.04771E-04
 -1       154 1.11231E-06 1.90434E-03 1.46023E-07
 -1       155-3.01196E-04 1.79538E-03 1.05050E-04
 -1       156 5.48303E-07 1.45323E-03 1.01530E-07
 -1       157-6.30331E-05 7.60040E-04-1.72762E-04
 -1       158-8.01326E-07 7.34180E-04 8.51263E-08
 -1       159 6.31314E-05 7.61770E-04 1.72934E-04
 -1       160-1.55929E-07 2.52545E-04 2.68065E-08
 -1       182 3.35677E-05 1.52446E-03 2.34984E-04
 -1       183-2.24443E-08 1.91705E-03 2.45151E-04
 -1       184-3.36144E-05 1.52444E-03 2.34973E-04
 -1       185-1.44326E-08 1.32813E-03 4.43724E-04
 -1       186-7.18941E-06 8.89956E-04 4.45673E-04
 -1       187-5.87124E-09 8.25366E-04 4.72337E-04
 -1       188 7.17549E-06 8.89950E-04 4.45676E-04
 -1       189-2.55877E-09 3.59755E-04 2.34664E-04
 -1       211 3.01161E-04 1.79537E-03 1.05056E-04
 -1       212-1.11881E-06 1.90435E-03 1.43343E-07
 -1       213-2.99765E-04 1.80385E-03-1.04769E-04
 -1       214-5.68697E-07 1.45321E-03 1.07385E-07
 -1       215-6.31401E-05 7.61764E-04 1.72938E-04
 -1       216 7.98055E-07 7.34182E-04 9.13706E-08
 -1       217 6.30299E-05 7.60034E-04-1.72754E-04
 -1       218 1.52422E-07 2.52541E-04 3.16533E-08
 -1       250-8.81617E-09 1.92620E-03-9.97116E-05
 -1       251 4.00428E-06 1.19206E-03 1.75688E-07
 -1       252-1.49795E-08 1.72909E-03 1.27195E-07
 -1       253-4.02376E-06 1.19205E-03 1.66002E-07
 -1       254-1.81125E-08 1.93627E-03 1.00131E-04
 -1       255-5.24858E-09 1.37363E-03 1.70656E-07
 -1       256-3.52895E-09 7.58793E-04-2.08744E-04
 -1       257-5.91180E-07 9.02510E-04 7.77604E-08
 -1       258-5.73287E-09 7.59863E-04 8.92920E-08
 -1       259 5.84028E-07 9.02509E-04 7.71999E-08
 -1       260-6.10199E-09 7.57280E-04 2.08875E-04
 -1       261-8.15724E-10 3.27150E-04 1.83084E-08
 -3
    1PSTEP                         3           3           1          
  100CL  103 1.50000E-02          81                     1    3           1
 -4  DISP        4    1
 -5  D1          1    2    1    0
 -5  D2          1    2    2    0
 -5  D3          1    2    3    0
 -5  ALL         1    2    0    0    1ALL
 -1         5 0.00000E+00 0.00000E+00 0.00000E+00
 -1         6 0.00000E+00 0.00000E+00 0.00000E+00
 -1         7 0.00000E+00 0.00000E+00 0.00000E+00
 -1         8 0.00000E+00 0.00000E+00 0.00000E+00
 -1        21 0.00000E+00 0.00000E+00 0.00000E+00
 -1        22 0.00000E+00 0.00000E+00 0.00000E+00
 -1        23 0.00000E+00 0.00000E+00 0.00000E+00
 -1        24 0.00000E+00 0.00000E+00 0.00000E+00
 -1        25 0.00000E+00 0.00000E+00 0.00000E+00
 -1        26 0.00000E+00 0.00000E+00 0.00000E+00
 -1        27 0.00000E+00 0.00000E+00 0.00000E+00
 -1        28 0.00000E+00 0.00000E+00 0.00000E+00
 -1        29 0.00000E+00 0.00000E+00 0.00000E+00
 -1        30 0.00000E+00 0.00000E+00 0.00000E+00
 -1        31 0.00000E+00 0.00000E+00 0.00000E+00
 -1        32 0.00000E+00 0.00000E+00 0.00000E+00
 -1        44 3.24896E-04-1.08983E-03 2.00274E-04
 -1        45 9.20727E-05-9.41382E-04 2.51559E-04
 -1        46-8.06970E-05-6.89263E-04 3.03686E-04
 -1        47 5.51003E-05-2.97762E-04 1.98418E-04
 -1        48-5.51108E-05-2.97772E-04 1.98427E-04
 -1        49 8.06777E-05-6.89270E-04 3.03678E-04
 -1        50-9.21475E-05-9.41351E-04 2.51597E-04
 -1        51-3.25052E-04-1.08976E-03 2.00388E-04
 -1        74-3.36663E-04-1.07730E-03-2.00450E-04
 -1        75-9.89363E-05-9.34321E-04-2.51675E-04
 -1        76 8.47585E-05-6.93528E-04-3.03710E-04
 -1        77-5.31836E-05-2.99788E-04-1.98424E-04
 -1        89 3.36609E-04-1.07741E-03-2.00486E-04
 -1        90 9.88544E-05-9.34328E-04-2.51692E-04
 -1        91-8.47579E-05-6.93518E-04-3.03682E-04
 -1        92 5.31790E-05-2.99778E-04-1.98399E-04
 -1        98 0.00000E+00 0.00000E+00 0.00000E+00
 -1        99 0.00000E+00 0.00000E+00 0.00000E+00
 -1       100 0.00000E+00 0.00000E+00 0.00000E+00
 -1       101 0.00000E+00 0.00000E+00 0.00000E+00
 -1       102 0.00000E+00 0.00000E+00 0.00000E+00
 -1       124-2.13785E-05-1.20461E-03 1.85842E-04
 -1       125-8.53172E-08-1.51901E-03 1.94044E-04
 -1       126 2.12337E-05-1.20460E-03 1.85833E-04
 -1       127-2.95159E-08-1.05109E-03 3.50026E-04
 -1       128 4.36402E-06-7.04817E-04 3.52754E-04
 -1       129-2.35702E-08-6.52809E-04 3.73520E-04
 -1       130-4.40040E-06-7.04826E-04 3.52748E-04
 -1       131-8.63768E-10-2.84972E-04 1.85756E-04
 -1       153-2.35628E-04-1.42711E-03 8.30995E-05
 -1       154-2.17169E-06-1.50886E-03-3.60652E-08
 -1       155 2.39532E-04-1.42433E-03-8.30992E-05
 -1       156 3.17719E-07-1.15020E-03 6.02451E-07
 -1       157 4.94541E-05-6.02261E-04 1.36628E-04
 -1       158-1.18160E-07-5.82115E-04 1.56289E-07
 -1       159-5.03713E-05-6.03482E-04-1.36853E-04
 -1       160-5.52051E-09-2.00200E-04 9.41626E-08
 -1       182-2.37504E-05-1.20915E-03-1.85912E-04
 -1       183-5.40436E-08-1.51341E-03-1.94052E-04
 -1       184 2.36767E-05-1.20917E-03-1.85870E-04
 -1       185-1.51371E-08-1.05119E-03-3.51292E-04
 -1       186 5.51472E-06-7.03821E-04-3.52564E-04
 -1       187-1.98295E-08-6.53034E-04-3.73830E-04
 -1       188-5.53684E-06-7.03826E-04-3.52563E-04
 -1       189 9.60374E-10-2.85164E-04-1.85953E-04
 -1       211-2.39525E-04-1.42442E-03-8.30950E-05
 -1       212 2.16522E-06-1.50888E-03-1.08232E-07
 -1       213 2.35571E-04-1.42705E-03 8.30816E-05
 -1       214-3.82134E-07-1.15019E-03 6.29338E-07
 -1       215 5.03526E-05-6.03469E-04-1.36836E-04
 -1       216 9.81646E-08-5.82115E-04 1.87292E-07
 -1       217-4.94789E-05-6.02272E-04 1.36650E-04
 -1       218-5.26058E-09-2.00197E-04 1.06836E-07
 -1       250-5.73764E-08-1.52897E-03 7.90200E-05
 -1       251 1.06236E-06-9.44321E-04-2.77941E-08
 -1       252-8.08508E-09-1.36777E-03-2.87912E-08
 -1       253-1.08434E-06-9.44303E-04-3.77766E-08
 -1       254-3.65849E-08-1.52631E-03-7.90527E-05
 -1       255-1.44259E-08-1.08773E-03-2.74520E-10
 -1       256-1.79675E-08-6.00181E-04 1.65424E-04
 -1       257 1.44377E-08-7.14848E-04-9.29872E-08
 -1       258-1.66520E-08-6.01675E-04-4.14498E-09
 -1       259-3.83802E-08-7.14849E-04-9.69799E-08
 -1       260-1.69150E-08-6.00319E-04-1.65252E-04
 -1       261-7.48159E-09-2.59235E-04 7.54495E-09
 -3
    1PSTEP                         4           4           1          
  100CL  104 2.00000E-02          81                     1    4           1
 -4  DISP        4    1
 -5  D1          1    2    1    0
 -5  D2          1    2    2    0
 -5  D3          1    2    3    0
 -5  ALL         1    2    0    0    1ALL
 -1         5 0.00000E+00 0.00000E+00 0.00000E+00
 -1         6 0.00000E+00 0.00000E+00 0.00000E+00
 -1         7 0.00000E+00 0.00000E+00 0.00000E+00
 -1         8 0.00000E+00 0.00000E+00 0.00000E+00
 -1        21 0.00000E+00 0.00000E+00 0.00000E+00
 -1        22 0.00000E+00 0.00000E+00 0.00000E+00
 -1        23 0.00000E+00 0.00000E+00 0.00000E+00
 -1        24 0.00000E+00 0.00000E+00 0.00000E+00
 -1        25 0.00000E+00 0.00000E+00 0.00000E+00
 -1        26 0.00000E+00 0.00000E+00 0.00000E+00
 -1        27 0.00000E+00 0.00000E+00 0.00000E+00
 -1        28 0.00000E+00 0.00000E+00 0.00000E+00
 -1        29 0.00000E+00 0.00000E+00 0.00000E+00
 -1        30 0.00000E+00 0.00000E+00 0.00000E+00
 -1        31 0.00000E+00 0.00000E+00 0.00000E+00
 -1        32 0.00000E+00 0.00000E+00 0.00000E+00
 -1        44-2.59338E-04 8.38387E-04-1.55675E-04
 -1        45-7.52756E-05 7.27035E-04-1.95338E-04
 -1        46 6.48880E-05 5.37432E-04-2.35693E-04
 -1        47-4.17325E-05 2.32374E-04-1.54111E-04
 -1        48 4.17310E-05 2.32373E-04-1.54117E-04
 -1        49-6.48984E-05 5.37421E-04-2.35706E-04
 -1        50 7.52661E-05 7.27063E-04-1.95324E-04
 -1        51 2.59272E-04 8.38373E-04-1.55586E-04
 -1        74 2.57734E-04 8.40143E-04 1.55669E-04
 -1        75 7.43334E-05 7.28001E-04 1.95344E-04
 -1        76-6.43149E-05 5.36838E-04 2.35678E-04
 -1        77 4.19923E-05 2.32092E-04 1.54099E-04
 -1        89-2.57715E-04 8.40104E-04 1.55620E-04
 -1        90-7.43616E-05 7.28005E-04 1.95325E-04
 -1        91 6.43287E-05 5.36841E-04 2.35695E-04
 -1        92-4.19916E-05 2.32096E-04 1.54116E-04
 -1        98 0.00000E+00 0.00000E+00 0.00000E+00
 -1        99 0.00000E+00 0.00000E+00 0.00000E+00
 -1       100 0.00000E+00 0.00000E+00 0.00000E+00
 -1       101 0.00000E+00 0.00000E+00 0.00000E+00
 -1       102 0.00000E+00 0.00000E+00 0.00000E+00
 -1       124 1.78595E-05 9.37947E-04-1.44376E-04
 -1       125-1.57100E-08 1.17648E-03-1.50701E-04
 -1       126-1.78990E-05 9.37969E-04-1.44375E-04
 -1       127-1.06302E-08 8.16076E-04-2.72570E-04
 -1       128-3.97282E-06 5.46571E-04-2.73816E-04
 -1       129-4.35266E-09 5.07067E-04-2.90293E-04
 -1       130 3.96184E-06 5.46572E-04-2.73819E-04
 -1       131-9.73627E-11 2.21367E-04-1.44320E-04
 -1       153 1.85582E-04 1.10681E-03-6.45169E-05
 -1       154-2.99025E-07 1.17313E-03 9.05563E-09
 -1       155-1.85066E-04 1.10711E-03 6.44838E-05
 -1       156 5.24749E-08 8.93374E-04 8.15818E-08
 -1       157-3.90253E-05 4.68211E-04-1.06185E-04
 -1       158-2.85199E-08 4.51852E-04 1.91199E-08
 -1       159 3.88970E-05 4.68064E-04 1.06160E-04
 -1       160-1.84841E-09 1.55261E-04 1.27194E-08
 -1       182 1.76751E-05 9.37330E-04 1.44335E-04
 -1       183-1.88984E-08 1.17723E-03 1.50673E-04
 -1       184-1.76843E-05 9.37329E-04 1.44373E-04
 -1       185 6.85181E-09 8.16081E-04 2.72389E-04
 -1       186-3.83381E-06 5.46714E-04 2.73845E-04
 -1       187-7.34596E-09 5.07039E-04 2.90253E-04
 -1       188 3.83249E-06 5.46712E-04 2.73841E-04
 -1       189 1.85991E-09 2.21341E-04 1.44293E-04
 -1       211 1.85087E-04 1.10709E-03 6.45042E-05
 -1       212 2.99722E-07 1.17314E-03-2.29162E-08
 -1       213-1.85603E-04 1.10683E-03-6.45378E-05
 -1       214-6.01307E-08 8.93366E-04 8.58648E-08
 -1       215-3.88955E-05 4.68072E-04 1.06159E-04
 -1       216 2.38793E-08 4.51858E-04 2.65151E-08
 -1       217 3.90161E-05 4.68206E-04-1.06176E-04
 -1       218 5.61174E-10 1.55262E-04 1.25808E-08
 -1       250-8.52262E-09 1.18605E-03-6.14328E-05
 -1       251 2.08098E-07 7.32814E-04-2.65313E-09
 -1       252 6.96278E-09 1.06260E-03-2.40801E-08
 -1       253-2.03187E-07 7.32814E-04 1.21790E-08
 -1       254-8.30021E-09 1.18652E-03 6.14422E-05
 -1       255-2.74304E-09 8.44829E-04-8.24238E-09
 -1       256-1.67827E-09 4.66012E-04-1.28405E-04
 -1       257-4.30529E-09 5.55236E-04-1.49843E-08
 -1       258-8.10236E-10 4.66964E-04 2.17159E-09
 -1       259 1.99820E-09 5.55233E-04-1.81437E-08
 -1       260-3.47690E-09 4.65968E-04 1.28420E-04
 -1       261-2.15237E-09 2.01202E-04 4.98178E-09
 -3
    1PSTEP                         5           5           1          
  100CL  105 2.50000E-02          81                     1    5           1
 -4  DISP        4    1
 -5  D1          1    2    1    0
 -5  D2          1    2    2    0
 -5  D3          1    2    3    0
 -5  ALL         1    2    0    0    1ALL
 -1         5 0.00000E+00 0.00000E+00 0.00000E+00
 -1         6 0.00000E+00 0.00000E+00 0.00000E+00
 -1         7 0.00000E+00 0.00000E+00 0.00000E+00
 -1         8 0.00000E+00 0.00000E+00 0.00000E+00
 -1        21 0.00000E+00 0.00000E+00 0.00000E+00
 -1        22 0.00000E+00 0.00000E+00 0.00000E+00
 -1        23 0.00000E+00 0.00000E+00 0.00000E+00
 -1        24 0.00000E+00 0.00000E+00 0.00000E+00
 -1        25 0.00000E+00 0.00000E+00 0.00000E+00
 -1        26 0.00000E+00 0.00000E+00 0.00000E+00
 -1        27 0.00000E+00 0.00000E+00 0.00000E+00
 -1        28 0.00000E+00 0.00000E+00 0.00000E+00
 -1        29 0.00000E+00 0.00000E+00 0.00000E+00
 -1        30 0.00000E+00 0.00000E+00 0.00000E+00
 -1        31 0.00000E+00 0.00000E+00 0.00000E+00
 -1        32 0.00000E+00 0.00000E+00 0.00000E+00
 -1        44 1.93776E-04-6.34801E-04 1.17391E-04
 -1        45 5.56986E-05-5.49724E-04 1.47437E-04
 -1        46-4.83096E-05-4.04960E-04 1.77848E-04
 -1        47 3.17764E-05-1.75086E-04 1.16301E-04
 -1        48-3.17829E-05-1.75092E-04 1.16319E-04
 -1        49 4.83141E-05-4.04951E-04 1.77851E-04
 -1        50-5.57515E-05-5.49729E-04 1.47468E-04
 -1        51-1.93803E-04-6.34768E-04 1.17412E-04
 -1        74-1.96515E-04-6.32693E-04-1.17411E-04
 -1        75-5.71711E-05-5.48442E-04-1.47380E-04
 -1        76 4.92664E-05-4.05811E-04-1.77825E-04
 -1        77-3.13503E-05-1.75453E-04-1.16310E-04
 -1        89 1.96416E-04-6.32714E-04-1.17340E-04
 -1        90 5.71718E-05-5.48464E-04-1.47381E-04
 -1        91-4.92930E-05-4.05792E-04-1.77828E-04
 -1        92 3.13517E-05-1.75451E-04-1.16323E-04
 -1        98 0.00000E+00 0.00000E+00 0.00000E+00
 -1        99 0.00000E+00 0.00000E+00 0.00000E+00
 -1       100 0.00000E+00 0.00000E+00 0.00000E+00
 -1       101 0.00000E+00 0.00000E+00 0.00000E+00
 -1       102 0.00000E+00 0.00000E+00 0.00000E+00
 -1       124-1.34321E-05-7.07071E-04 1.08919E-04
 -1       125-6.64585E-08-8.88462E-04 1.13693E-04
 -1       126 1.33567E-05-7.07054E-04 1.08871E-04
 -1       127 1.27082E-09-6.15889E-04 2.05380E-04
 -1       128 2.87665E-06-4.12649E-04 2.06630E-04
 -1       129-1.96720E-08-3.82613E-04 2.18978E-04
 -1       130-2.89456E-06-4.12660E-04 2.06636E-04
 -1       131 5.80490E-10-1.67048E-04 1.08872E-04
 -1       153-1.39355E-04-8.35475E-04 4.86678E-05
 -1       154-7.56922E-07-8.85021E-04 2.99734E-08
 -1       155 1.40389E-04-8.35682E-04-4.86714E-05
 -1       156-9.01749E-08-6.73845E-04 1.13975E-07
 -1       157 2.92702E-05-3.53367E-04 8.00632E-05
 -1       158 4.35369E-08-3.41315E-04 1.20896E-08
 -1       159-2.95243E-05-3.53480E-04-8.01091E-05
 -1       160 4.56872E-08-1.17287E-04 1.99036E-08
 -1       182-1.33734E-05-7.07649E-04-1.08868E-04
 -1       183 1.26960E-08-8.87902E-04-1.13682E-04
 -1       184 1.33452E-05-7.07660E-04-1.08901E-04
 -1       185-2.63760E-08-6.16195E-04-2.05641E-04
 -1       186 3.02065E-06-4.12510E-04-2.06594E-04
 -1       187 5.35090E-09-3.82402E-04-2.19036E-04
 -1       188-3.03007E-06-4.12502E-04-2.06582E-04
 -1       189-1.10995E-09-1.67005E-04-1.08910E-04
 -1       211-1.40413E-04-8.35741E-04-4.86965E-05
 -1       212 7.67197E-07-8.85095E-04 5.65944E-09
 -1       213 1.39348E-04-8.35484E-04 4.86791E-05
 -1       214 5.63412E-08-6.73825E-04 1.27226E-07
 -1       215 2.95045E-05-3.53474E-04-8.00941E-05
 -1       216-4.77910E-08-3.41328E-04 2.45845E-08
 -1       217-2.92709E-05-3.53372E-04 8.00707E-05
 -1       218-5.07947E-08-1.17284E-04 2.58245E-08
 -1       250-4.45250E-08-8.94996E-04 4.63524E-05
 -1       251 6.63873E-07-5.53325E-04 7.25858E-09
 -1       252-7.83497E-09-8.00795E-04 1.26906E-08
 -1       253-6.73224E-07-5.53283E-04-1.51443E-08
 -1       254 4.43761E-09-8.94041E-04-4.62787E-05
 -1       255-5.00369E-09-6.37393E-04-1.31768E-08
 -1       256-1.26410E-08-3.51656E-04 9.69267E-05
 -1       257-9.65757E-08-4.18979E-04-1.63358E-08
 -1       258-8.58448E-09-3.52487E-04 1.02486E-09
 -1       259 8.71619E-08-4.18974E-04-1.41209E-08
 -1       260-1.77577E-09-3.51713E-04-9.68962E-05
 -1       261-2.80497E-09-1.51939E-04-2.47899E-09
 -3
    1PSTEP                         6           6           1          
  100CL  106 3.00000E-02          81                     1    6           1
 -4  DISP        4    1
 -5  D1          1    2    1    0
 -5  D2          1    2    2    0
 -5  D3          1    2    3    0
 -5  ALL         1    2    0    0    1ALL
 -1         5 0.00000E+00 0.00000E+00 0.00000E+00
 -1         6 0.00000E+00 0.00000E+00 0.00000E+00
 -1         7 0.00000E+00 0.00000E+00 0.00000E+00
 -1         8 0.00000E+00 0.00000E+00 0.00000E+00
 -1        21 0.00000E+00 0.00000E+00 0.00000E+00
 -1        22 0.00000E+00 0.00000E+00 0.00000E+00
 -1        23 0.00000E+00 0.00000E+00 0.00000E+00
 -1        24 0.00000E+00 0.00000E+00 0.00000E+00
 -1        25 0.00000E+00 0.00000E+00 0.00000E+00
 -1        26 0.00000E+00 0.00000E+00 0.00000E+00
 -1        27 0.00000E+00 0.00000E+00 0.00000E+00
 -1        28 0.00000E+00 0.00000E+00 0.00000E+00
 -1        29 0.00000E+00 0.00000E+00 0.00000E+00
 -1        30 0.00000E+00 0.00000E+00 0.00000E+00
 -1        31 0.00000E+00 0.00000E+00 0.00000E+00
 -1        32 0.00000E+00 0.00000E+00 0.00000E+00
 -1        44-1.40788E-04 4.60177E-04-8.51664E-05
 -1        45-4.05550E-05 3.98547E-04-1.06940E-04
 -1        46 3.52141E-05 2.93858E-04-1.28995E-04
 -1        47-2.30026E-05 1.27022E-04-8.43664E-05