    1C
    1UUSER                                                              
    1UDATE              18.july.2018                                    
    1UTIME              00:56:22                                        
    1UHOST                                                              
    1UPGM               CalculiX                                        
    1UVERSION           Version 2.13                             
    1UCOMPILETIME       jue jun 14 00:40:39 CEST 2018                    
    1UDIR                                                               
    1UDBN                                                               
    1UMAT    1EL                                                        
    2C                            81                                     1
 -1         5 0.00000E+00 0.00000E+00 8.00000E+00
 -1         6 1.00000E+00 0.00000E+00 8.00000E+00
 -1         7 1.00000E+00 1.00000E+00 8.00000E+00
 -1         8 0.00000E+00 1.00000E+00 8.00000E+00
 -1        21 2.50000E-01 0.00000E+00 8.00000E+00
 -1        22 5.00000E-01 0.00000E+00 8.00000E+00
 -1        23 7.50000E-01 0.00000E+00 8.00000E+00
 -1        24 1.00000E+00 2.50000E-01 8.00000E+00
 -1        25 1.00000E+00 5.00000E-01 8.00000E+00
 -1        26 1.00000E+00 7.50000E-01 8.00000E+00
 -1        27 7.50000E-01 1.00000E+00 8.00000E+00
 -1        28 5.00000E-01 1.00000E+00 8.00000E+00
 -1        29 2.50000E-01 1.00000E+00 8.00000E+00
 -1        30 0.00000E+00 7.50000E-01 8.00000E+00
 -1        31 0.00000E+00 5.00000E-01 8.00000E+00
 -1        32 0.00000E+00 2.50000E-01 8.00000E+00
 -1        44 1.00000E+00 0.00000E+00 6.00000E+00
 -1        45 1.00000E+00 0.00000E+00 6.50000E+00
 -1        46 1.00000E+00 0.00000E+00 7.00000E+00
 -1        47 1.00000E+00 0.00000E+00 7.50000E+00
 -1        48 0.00000E+00 0.00000E+00 7.50000E+00
 -1        49 0.00000E+00 0.00000E+00 7.00000E+00
 -1        50 0.00000E+00 0.00000E+00 6.50000E+00
 -1        51 0.00000E+00 0.00000E+00 6.00000E+00
 -1        74 1.00000E+00 1.00000E+00 6.00000E+00
 -1        75 1.00000E+00 1.00000E+00 6.50000E+00
 -1        76 1.00000E+00 1.00000E+00 7.00000E+00
 -1        77 1.00000E+00 1.00000E+00 7.50000E+00
 -1        89 0.00000E+00 1.00000E+00 6.00000E+00
 -1        90 0.00000E+00 1.00000E+00 6.50000E+00
 -1        91 0.00000E+00 1.00000E+00 7.00000E+00
 -1        92 0.00000E+00 1.00000E+00 7.50000E+00
 -1        98 5.00000E-01 2.50000E-01 8.00000E+00
 -1        99 2.50000E-01 5.00000E-01 8.00000E+00
 -1       100 5.00000E-01 5.00000E-01 8.00000E+00
 -1       101 7.50000E-01 5.00000E-01 8.00000E+00
 -1       102 5.00000E-01 7.50000E-01 8.00000E+00
 -1       124 2.50000E-01 0.00000E+00 6.00000E+00
 -1       125 5.00000E-01 0.00000E+00 6.00000E+00
 -1       126 7.50000E-01 0.00000E+00 6.00000E+00
 -1       127 5.00000E-01 0.00000E+00 6.50000E+00
 -1       128 2.50000E-01 0.00000E+00 7.00000E+00
 -1       129 5.00000E-01 0.00000E+00 7.00000E+00
 -1       130 7.50000E-01 0.00000E+00 7.00000E+00
 -1       131 5.00000E-01 0.00000E+00 7.50000E+00
 -1       153 1.00000E+00 2.50000E-01 6.00000E+00
 -1       154 1.00000E+00 5.00000E-01 6.00000E+00
 -1       155 1.00000E+00 7.50000E-01 6.00000E+00
 -1       156 1.00000E+00 5.00000E-01 6.50000E+00
 -1       157 1.00000E+00 2.50000E-01 7.00000E+00
 -1       158 1.00000E+00 5.00000E-01 7.00000E+00
 -1       159 1.00000E+00 7.50000E-01 7.00000E+00
 -1       160 1.00000E+00 5.00000E-01 7.50000E+00
 -1       182 7.50000E-01 1.00000E+00 6.00000E+00
 -1       183 5.00000E-01 1.00000E+00 6.00000E+00
 -1       184 2.50000E-01 1.00000E+00 6.00000E+00
 -1       185 5.00000E-01 1.00000E+00 6.50000E+00
 -1       186 7.50000E-01 1.00000E+00 7.00000E+00
 -1       187 5.00000E-01 1.00000E+00 7.00000E+00
 -1       188 2.50000E-01 1.00000E+00 7.00000E+00
 -1       189 5.00000E-01 1.00000E+00 7.50000E+00
 -1       211 0.00000E+00 7.50000E-01 6.00000E+00
 -1       212 0.00000E+00 5.00000E-01 6.00000E+00
 -1       213 0.00000E+00 2.50000E-01 6.00000E+00
 -1       214 0.00000E+00 5.00000E-01 6.50000E+00
 -1       215 0.00000E+00 7.50000E-01 7.00000E+00
 -1       216 0.00000E+00 5.00000E-01 7.00000E+00
 -1       217 0.00000E+00 2.50000E-01 7.00000E+00
 -1       218 0.00000E+00 5.00000E-01 7.50000E+00
 -1       250 5.00000E-01 2.50000E-01 6.00000E+00
 -1       251 2.50000E-01 5.00000E-01 6.00000E+00
 -1       252 5.00000E-01 5.00000E-01 6.00000E+00
 -1       253 7.50000E-01 5.00000E-01 6.00000E+00
 -1       254 5.00000E-01 7.50000E-01 6.00000E+00
 -1       255 5.00000E-01 5.00000E-01 6.50000E+00
 -1       256 5.00000E-01 2.50000E-01 7.00000E+00
 -1       257 2.50000E-01 5.00000E-01 7.00000E+00
 -1       258 5.00000E-01 5.00000E-01 7.00000E+00
 -1       259 7.50000E-01 5.00000E-01 7.00000E+00
 -1       260 5.00000E-01 7.50000E-01 7.00000E+00
 -1       261 5.00000E-01 5.00000E-01 7.50000E+00
 -3
    3C                             8                                     1
 -1        25    4    0    1
 -2        51       125       252       212        49       129       258       216       124       250
 -2       251       213        50       127       255       214       128       256       257       217
 -1        26    4    0    1
 -2       125        44       154       252       129        46       158       258       126       153
 -2       253       250       127        45       156       255       130       157       259       256
 -1        27    4    0    1
 -2       212       252       183        89       216       258       187        91       251       254
 -2       184       211       214       255       185        90       257       260       188       215
 -1        28    4    0    1
 -2       252       154        74       183       258       158        76       187       253       155
 -2       182       254       255       156        75       185       259       159       186       260
 -1        29    4    0    1
 -2        49       129       258       216         5        22       100        31       128       256
 -2       257       217        48       131       261       218        21        98        99        32
 -1        30    4    0    1
 -2       129        46       158       258        22         6        25       100       130       157
 -2       259       256       131        47       160       261        23        24       101        98
 -1        31    4    0    1
 -2       216       258       187        91        31       100        28         8       257       260
 -2       188       215       218       261       189        92        99       102        29        30
 -1        32    4    0    1
 -2       258       158        76       187       100        25         7        28       259       159
 -2       186       260       261       160        77       189       101        26        27       102
 -3
    1PSTEP                         1           1           1          
  100CL  101 5.00000E-03          81                     1    1           1
 -4  DISP        4    1
 -5  D1          1    2    1    0
 -5  D2          1    2    2    0
 -5  D3          1    2    3    0
 -5  ALL         1    2    0    0    1ALL
 -1         5 0.00000E+00 0.00000E+00 0.00000E+00
 -1         6 0.00000E+00 0.00000E+00 0.00000E+00
 -1         7 0.00000E+00 0.00000E+00 0.00000E+00
 -1         8 0.00000E+00 0.00000E+00 0.00000E+00
 -1        21 0.00000E+00 0.00000E+00 0.00000E+00
 -1        22 0.00000E+00 0.00000E+00 0.00000E+00
 -1        23 0.00000E+00 0.00000E+00 0.00000E+00
 -1        24 0.00000E+00 0.00000E+00 0.00000E+00
 -1        25 0.00000E+00 0.00000E+00 0.00000E+00
 -1        26 0.00000E+00 0.00000E+00 0.00000E+00
 -1        27 0.00000E+00 0.00000E+00 0.00000E+00
 -1        28 0.00000E+00 0.00000E+00 0.00000E+00
 -1        29 0.00000E+00 0.00000E+00 0.00000E+00
 -1        30 0.00000E+00 0.00000E+00 0.00000E+00
 -1        31 0.00000E+00 0.00000E+00 0.00000E+00
 -1        32 0.00000E+00 0.00000E+00 0.00000E+00
 -1        44 6.80405E-04-2.79604E-03 4.78370E-04
 -1        45 3.28898E-04-2.29982E-03 6.58630E-04
 -1        46-2.20247E-04-1.76292E-03 8.54011E-04
 -1        47 1.24798E-04-7.03446E-04 4.60696E-04
 -1        48-1.24785E-04-7.03430E-04 4.60672E-04
 -1        49 2.20316E-04-1.76290E-03 8.53949E-04
 -1        50-3.28763E-04-2.29981E-03 6.58523E-04
 -1        51-6.80094E-04-2.79600E-03 4.78180E-04
 -1        74-2.48644E-04-3.95982E-03-5.36179E-04
 -1        75 2.02110E-05-2.83122E-03-6.71024E-04
 -1        76 2.43804E-05-1.50787E-03-8.65873E-04
 -1        77-2.24258E-04-5.27202E-04-4.69884E-04
 -1        89 2.48955E-04-3.95987E-03-5.36369E-04
 -1        90-2.00757E-05-2.83123E-03-6.71131E-04
 -1        91-2.43112E-05-1.50789E-03-8.65935E-04
 -1        92 2.24272E-04-5.27218E-04-4.69909E-04
 -1        98 0.00000E+00 0.00000E+00 0.00000E+00
 -1        99 0.00000E+00 0.00000E+00 0.00000E+00
 -1       100 0.00000E+00 0.00000E+00 0.00000E+00
 -1       101 0.00000E+00 0.00000E+00 0.00000E+00
 -1       102 0.00000E+00 0.00000E+00 0.00000E+00
 -1       124-6.68909E-05-3.14498E-03 4.45188E-04
 -1       125 1.23364E-07-3.87235E-03 4.73181E-04
 -1       126 6.71611E-05-3.14500E-03 4.45254E-04
 -1       127 7.56928E-08-2.57372E-03 9.44547E-04
 -1       128 3.56353E-05-1.80093E-03 9.13103E-04
 -1       129 2.31192E-08-1.69893E-03 9.45389E-04
 -1       130-3.55786E-05-1.80094E-03 9.13141E-04
 -1       131 3.41093E-09-6.85625E-04 4.66471E-04
 -1       153-3.54605E-04-3.23791E-03 1.79534E-04
 -1       154-8.32007E-05-2.91135E-03-3.13039E-05
 -1       155 3.04629E-04-3.63103E-03-2.39534E-04
 -1       156-1.20470E-04-2.88718E-03-7.96027E-05
 -1       157 7.70821E-05-1.46302E-03 3.71048E-04
 -1       158 8.88775E-05-1.37418E-03-2.88268E-05
 -1       159-3.13560E-05-1.39408E-03-3.90306E-04
 -1       160 3.87581E-05-5.34038E-04 1.37651E-06
 -1       182 2.94588E-05-2.66429E-03-4.96703E-04
 -1       183 1.23714E-07-4.74621E-03-5.02624E-04
 -1       184-2.91885E-05-2.66431E-03-4.96770E-04
 -1       185 7.54921E-08-2.85379E-03-9.16998E-04
 -1       186-2.29355E-05-2.02777E-03-9.63960E-04
 -1       187 2.32338E-08-1.70217E-03-9.80955E-04
 -1       188 2.29923E-05-2.02778E-03-9.63998E-04
 -1       189 3.38844E-09-6.58752E-04-4.68050E-04
 -1       211-3.04306E-04-3.63105E-03-2.39700E-04
 -1       212 8.35215E-05-2.91135E-03-3.14692E-05
 -1       213 3.54927E-04-3.23789E-03 1.79368E-04
 -1       214 1.20613E-04-2.88718E-03-7.97071E-05
 -1       215 3.14294E-05-1.39409E-03-3.90372E-04
 -1       216-8.88026E-05-1.37418E-03-2.88913E-05
 -1       217-7.70087E-05-1.46301E-03 3.70982E-04
 -1       218-3.87368E-05-5.34038E-04 1.35420E-06
 -1       250 1.28230E-07-4.09446E-03 1.60333E-04
 -1       251 5.42530E-05-2.50955E-03-2.26764E-05
 -1       252 1.31305E-07-3.45661E-03-2.05585E-05
 -1       253-5.39689E-05-2.50955E-03-2.26236E-05
 -1       254 1.28529E-07-4.42660E-03-2.47494E-04
 -1       255 7.91982E-08-2.63089E-03-3.50229E-05
 -1       256 2.55977E-08-1.53694E-03 3.88001E-04
 -1       257-5.08069E-05-1.67540E-03-9.75176E-06
 -1       258 2.62639E-08-1.62487E-03-1.71687E-05
 -1       259 5.08692E-05-1.67540E-03-9.71287E-06
 -1       260 2.56300E-08-1.55869E-03-4.24004E-04
 -1       261 7.21868E-09-6.58378E-04-3.56617E-06
 -3
    1PSTEP                         2           2           1          
  100CL  102 1.00000E-02          81                     1    2           1
 -4  DISP        4    1
 -5  D1          1    2    1    0
 -5  D2          1    2    2    0
 -5  D3          1    2    3    0
 -5  ALL         1    2    0    0    1ALL
 -1         5 0.00000E+00 0.00000E+00 0.00000E+00
 -1         6 0.00000E+00 0.00000E+00 0.00000E+00
 -1         7 0.00000E+00 0.00000E+00 0.00000E+00
 -1         8 0.00000E+00 0.00000E+00 0.00000E+00
 -1        21 0.00000E+00 0.00000E+00 0.00000E+00
 -1        22 0.00000E+00 0.00000E+00 0.00000E+00
 -1        23 0.00000E+00 0.00000E+00 0.00000E+00
 -1        24 0.00000E+00 0.00000E+00 0.00000E+00
 -1        25 0.00000E+00 0.00000E+00 0.00000E+00
 -1        26 0.00000E+00 0.00000E+00 0.00000E+00
 -1        27 0.00000E+00 0.00000E+00 0.00000E+00
 -1        28 0.00000E+00 0.00000E+00 0.00000E+00
 -1        29 0.00000E+00 0.00000E+00 0.00000E+00
 -1        30 0.00000E+00 0.00000E+00 0.00000E+00
 -1        31 0.00000E+00 0.00000E+00 0.00000E+00
 -1        32 0.00000E+00 0.00000E+00 0.00000E+00
 -1        44-4.33135E-04 1.35020E-03-2.52941E-04
 -1        45-1.29229E-04 1.17513E-03-3.17674E-04
 -1        46 1.09263E-04 8.78221E-04-3.83616E-04
 -1        47-6.59629E-05 3.79825E-04-2.50560E-04
 -1        48 6.59592E-05 3.79831E-04-2.50563E-04
 -1        49-1.09279E-04 8.78253E-04-3.83623E-04
 -1        50 1.29254E-04 1.17510E-03-3.17647E-04
 -1        51 4.33150E-04 1.35020E-03-2.52968E-04
 -1        74 4.09544E-04 1.37655E-03 2.53324E-04
 -1        75 1.15419E-04 1.18955E-03 3.17853E-04
 -1        76-1.01410E-04 8.70327E-04 3.83737E-04
 -1        77 6.99101E-05 3.75602E-04 2.50610E-04
 -1        89-4.09517E-04 1.37670E-03 2.53401E-04
 -1        90-1.15354E-04 1.18955E-03 3.17875E-04
 -1        91 1.01389E-04 8.70344E-04 3.83719E-04
 -1        92-6.99046E-05 3.75597E-04 2.50578E-04
 -1        98 0.00000E+00 0.00000E+00 0.00000E+00
 -1        99 0.00000E+00 0.00000E+00 0.00000E+00
 -1       100 0.00000E+00 0.00000E+00 0.00000E+00
 -1       101 0.00000E+00 0.00000E+00 0.00000E+00
 -1       102 0.00000E+00 0.00000E+00 0.00000E+00
 -1       124 3.32447E-05 1.53069E-03-2.34751E-04
 -1       125 8.97909E-09 1.90788E-03-2.45052E-04
 -1       126-3.32358E-05 1.53066E-03-2.34728E-04
 -1       127 1.17167E-09 1.32686E-03-4.44818E-04
 -1       128-7.86244E-06 8.87876E-04-4.45270E-04
 -1       129 4.36052E-09 8.25328E-04-4.72475E-04
 -1       130 7.86105E-06 8.87868E-04-4.45270E-04
 -1       131-3.87450E-09 3.60101E-04-2.34798E-04
 -1       153 3.05403E-04 1.79503E-03-1.04866E-04
 -1       154-4.24349E-06 1.90732E-03 1.89080E-07
 -1       155-2.97381E-04 1.80477E-03 1.05140E-04
 -1       156 7.20633E-07 1.45357E-03 1.54479E-06
 -1       157-6.42675E-05 7.62691E-04-1.72893E-04
 -1       158-1.87967E-07 7.34229E-04 3.97426E-07
 -1       159 6.22917E-05 7.59774E-04 1.72692E-04
 -1       160-7.21782E-08 2.52336E-04 1.18884E-07
 -1       182 2.47193E-05 1.52125E-03 2.35077E-04
 -1       183 6.55041E-08 1.91978E-03 2.45092E-04
 -1       184-2.46466E-05 1.52128E-03 2.35045E-04
 -1       185 4.00849E-10 1.32731E-03 4.42360E-04
 -1       186-4.90446E-06 8.90588E-04 4.45851E-04
 -1       187 1.66761E-08 8.25301E-04 4.72127E-04
 -1       188 4.91330E-06 8.90605E-04 4.45858E-04
 -1       189-1.81275E-09 3.59971E-04 2.34561E-04
 -1       211 2.97419E-04 1.80484E-03 1.05082E-04
 -1       212 4.30924E-06 1.90728E-03 2.27651E-07
 -1       213-3.05400E-04 1.79498E-03-1.04862E-04
 -1       214-7.27578E-07 1.45361E-03 1.53260E-06
 -1       215-6.22880E-05 7.59769E-04 1.72701E-04
 -1       216 2.11094E-07 7.34213E-04 3.82128E-07
 -1       217 6.42779E-05 7.62706E-04-1.72901E-04
 -1       218 7.10667E-08 2.52342E-04 1.22400E-07
 -1       250-7.92913E-10 1.92929E-03-9.95888E-05
 -1       251 2.36691E-07 1.19143E-03 9.97941E-08
 -1       252-2.47871E-08 1.72951E-03 1.51577E-07
 -1       253-2.31832E-07 1.19146E-03 3.70652E-08
 -1       254 2.65182E-08 1.93121E-03 1.00234E-04
 -1       255 1.02011E-08 1.37431E-03 1.66169E-07
 -1       256-2.02477E-09 7.57661E-04-2.08649E-04
 -1       257 4.96294E-07 9.02857E-04-1.04548E-07
 -1       258-5.38787E-09 7.59403E-04 8.12083E-08
 -1       259-4.91063E-07 9.02864E-04-8.71261E-08
 -1       260 4.60701E-09 7.58431E-04 2.09109E-04
 -1       261 4.34008E-09 3.27041E-04 1.77251E-08
 -3
    1PSTEP                         3           3           1          
  100CL  103 1.50000E-02          81                     1    3           1
 -4  DISP        4    1
 -5  D1          1    2    1    0
 -5  D2          1    2    2    0
 -5  D3          1    2    3    0
 -5  ALL         1    2    0    0    1ALL
 -1         5 0.00000E+00 0.00000E+00 0.00000E+00
 -1         6 0.00000E+00 0.00000E+00 0.00000E+00
 -1         7 0.00000E+00 0.00000E+00 0.00000E+00
 -1         8 0.00000E+00 0.00000E+00 0.00000E+00
 -1        21 0.00000E+00 0.00000E+00 0.00000E+00
 -1        22 0.00000E+00 0.00000E+00 0.00000E+00
 -1        23 0.00000E+00 0.00000E+00 0.00000E+00
 -1        24 0.00000E+00 0.00000E+00 0.00000E+00
 -1        25 0.00000E+00 0.00000E+00 0.00000E+00
 -1        26 0.00000E+00 0.00000E+00 0.00000E+00
 -1        27 0.00000E+00 0.00000E+00 0.00000E+00
 -1        28 0.00000E+00 0.00000E+00 0.00000E+00
 -1        29 0.00000E+00 0.00000E+00 0.00000E+00
 -1        30 0.00000E+00 0.00000E+00 0.00000E+00
 -1        31 0.00000E+00 0.00000E+00 0.00000E+00
 -1        32 0.00000E+00 0.00000E+00 0.00000E+00
 -1        44 3.29723E-04-1.08534E-03 2.00556E-04
 -1        45 9.49129E-05-9.39576E-04 2.51704E-04
 -1        46-8.21999E-05-6.90634E-04 3.03875E-04
 -1        47 5.44444E-05-2.98513E-04 1.98507E-04
 -1        48-5.44483E-05-2.98521E-04 1.98524E-04
 -1        49 8.22168E-05-6.90641E-04 3.03879E-04
 -1        50-9.49646E-05-9.39565E-04 2.51719E-04
 -1        51-3.29773E-04-1.08532E-03 2.00601E-04
 -1        74-3.33395E-04-1.08391E-03-2.00469E-04
 -1        75-9.67519E-05-9.38346E-04-2.51568E-04
 -1        76 8.34266E-05-6.91513E-04-3.03862E-04
 -1        77-5.38907E-05-2.98836E-04-1.98533E-04
 -1        89 3.33369E-04-1.08400E-03-2.00527E-04
 -1        90 9.67101E-05-9.38359E-04-2.51609E-04
 -1        91-8.34200E-05-6.91505E-04-3.03837E-04
 -1        92 5.38916E-05-2.98832E-04-1.98518E-04
 -1        98 0.00000E+00 0.00000E+00 0.00000E+00
 -1        99 0.00000E+00 0.00000E+00 0.00000E+00
 -1       100 0.00000E+00 0.00000E+00 0.00000E+00
 -1       101 0.00000E+00 0.00000E+00 0.00000E+00
 -1       102 0.00000E+00 0.00000E+00 0.00000E+00
 -1       124-2.29381E-05-1.20689E-03 1.86066E-04
 -1       125-6.73362E-08-1.51899E-03 1.94145E-04
 -1       126 2.28551E-05-1.20686E-03 1.86026E-04
 -1       127-3.63336E-10-1.05159E-03 3.51053E-04
 -1       128 4.89648E-06-7.04788E-04 3.52947E-04
 -1       129-1.63451E-08-6.53415E-04 3.74017E-04
 -1       130-4.90638E-06-7.04793E-04 3.52949E-04
 -1       131 3.05619E-09-2.85052E-04 1.85948E-04
 -1       153-2.37252E-04-1.42517E-03 8.31287E-05
 -1       154-1.35244E-06-1.50849E-03 1.05602E-08
 -1       155 2.38865E-04-1.42621E-03-8.31476E-05
 -1       156-3.20640E-07-1.15091E-03 1.21833E-07
 -1       157 4.98667E-05-6.02814E-04 1.36863E-04
 -1       158 1.93076E-07-5.82138E-04-1.22205E-09
 -1       159-5.02450E-05-6.02826E-04-1.36936E-04
 -1       160 1.24640E-07-2.00223E-04 3.18359E-08
 -1       182-2.27628E-05-1.20714E-03-1.86115E-04
 -1       183-1.18727E-08-1.51955E-03-1.94135E-04
 -1       184 2.27416E-05-1.20716E-03-1.86096E-04
 -1       185-1.05274E-08-1.05247E-03-3.51378E-04
 -1       186 5.02134E-06-7.04775E-04-3.52914E-04
 -1       187-4.18631E-09-6.52848E-04-3.74136E-04
 -1       188-5.02462E-06-7.04775E-04-3.52913E-04
 -1       189 1.47974E-09-2.84868E-04-1.85996E-04
 -1       211-2.38892E-04-1.42630E-03-8.31169E-05
 -1       212 1.27114E-06-1.50854E-03-6.81193E-09
 -1       213 2.37198E-04-1.42516E-03 8.31696E-05
 -1       214 3.18499E-07-1.15090E-03 1.39658E-07
 -1       215 5.02299E-05-6.02820E-04-1.36932E-04
 -1       216-2.18262E-07-5.82145E-04 1.57610E-08
 -1       217-4.98733E-05-6.02826E-04 1.36867E-04
 -1       218-1.24838E-07-2.00222E-04 2.96793E-08
 -1       250-3.77328E-08-1.53104E-03 7.91671E-05
 -1       251 1.11114E-06-9.45065E-04-5.52124E-08
 -1       252 1.26011E-08-1.36911E-03-1.14023E-09
 -1       253-1.13553E-06-9.45033E-04-4.73753E-09
 -1       254-5.57258E-10-1.53012E-03-7.91039E-05
 -1       255-1.43500E-08-1.08793E-03-3.32957E-08
 -1       256-4.54025E-09-6.00466E-04 1.65446E-04
 -1       257-2.16932E-07-7.15101E-04-4.89073E-09
 -1       258 3.50175E-09-6.02271E-04 2.78575E-09
 -1       259 2.08704E-07-7.15098E-04-2.28047E-08
 -1       260-2.01459E-10-6.00463E-04-1.65421E-04
 -1       261-4.10507E-09-2.59396E-04-1.47828E-08
 -3
    1PSTEP                         4           4           1          
  100CL  104 2.00000E-02          81                     1    4           1
 -4  DISP        4    1
 -5  D1          1    2    1    0
 -5  D2          1    2    2    0
 -5  D3          1    2    3    0
 -5  ALL         1    2    0    0    1ALL
 -1         5 0.00000E+00 0.00000E+00 0.00000E+00
 -1         6 0.00000E+00 0.00000E+00 0.00000E+00
 -1         7 0.00000E+00 0.00000E+00 0.00000E+00
 -1         8 0.00000E+00 0.00000E+00 0.00000E+00
 -1        21 0.00000E+00 0.00000E+00 0.00000E+00
 -1        22 0.00000E+00 0.00000E+00 0.00000E+00
 -1        23 0.00000E+00 0.00000E+00 0.00000E+00
 -1        24 0.00000E+00 0.00000E+00 0.00000E+00
 -1        25 0.00000E+00 0.00000E+00 0.00000E+00
 -1        26 0.00000E+00 0.00000E+00 0.00000E+00
 -1        27 0.00000E+00 0.00000E+00 0.00000E+00
 -1        28 0.00000E+00 0.00000E+00 0.00000E+00
 -1        29 0.00000E+00 0.00000E+00 0.00000E+00
 -1        30 0.00000E+00 0.00000E+00 0.00000E+00
 -1        31 0.00000E+00 0.00000E+00 0.00000E+00
 -1        32 0.00000E+00 0.00000E+00 0.00000E+00
 -1        44-2.59416E-04 8.38402E-04-1.55550E-04
 -1        45-7.51917E-05 7.27053E-04-1.95243E-04
 -1        46 6.48836E-05 5.37335E-04-2.35616E-04
 -1        47-4.17211E-05 2.32349E-04-1.54110E-04
 -1        48 4.17273E-05 2.32351E-04-1.54110E-04
 -1        49-6.48459E-05 5.37348E-04-2.35642E-04
 -1        50 7.52358E-05 7.27045E-04-1.95275E-04
 -1        51 2.59506E-04 8.38462E-04-1.55614E-04
 -1        74 2.57724E-04 8.39271E-04 1.55576E-04
 -1        75 7.43798E-05 7.27693E-04 1.95330E-04
 -1        76-6.43454E-05 5.36978E-04 2.35670E-04
 -1        77 4.19917E-05 2.32188E-04 1.54119E-04
 -1        89-2.57638E-04 8.39286E-04 1.55556E-04
 -1        90-7.43254E-05 7.27664E-04 1.95279E-04
 -1        91 6.43685E-05 5.36989E-04 2.35648E-04
 -1        92-4.19822E-05 2.32180E-04 1.54103E-04
 -1        98 0.00000E+00 0.00000E+00 0.00000E+00
 -1        99 0.00000E+00 0.00000E+00 0.00000E+00
 -1       100 0.00000E+00 0.00000E+00 0.00000E+00
 -1       101 0.00000E+00 0.00000E+00 0.00000E+00
 -1       102 0.00000E+00 0.00000E+00 0.00000E+00
 -1       124 1.80624E-05 9.37755E-04-1.44334E-04
 -1       125 1.87865E-08 1.17654E-03-1.50638E-04
 -1       126-1.79963E-05 9.37739E-04-1.44314E-04
 -1       127 3.14114E-08 8.16129E-04-2.72505E-04
 -1       128-3.95950E-06 5.46532E-04-2.73789E-04
 -1       129 7.53565E-09 5.06934E-04-2.90263E-04
 -1       130 3.98445E-06 5.46522E-04-2.73774E-04
 -1       131 3.78007E-09 2.21326E-04-1.44293E-04
 -1       153 1.85832E-04 1.10692E-03-6.44918E-05
 -1       154-5.28028E-07 1.17362E-03 3.61251E-08
 -1       155-1.84980E-04 1.10711E-03 6.45262E-05
 -1       156-9.93494E-08 8.93387E-04 9.36147E-08
 -1       157-3.90540E-05 4.68175E-04-1.06136E-04
 -1       158 1.17191E-07 4.51800E-04 1.84649E-08
 -1       159 3.89054E-05 4.68064E-04 1.06138E-04
 -1       160 5.33099E-08 1.55205E-04 1.53165E-08
 -1       182 1.75458E-05 9.37555E-04 1.44342E-04
 -1       183 5.99914E-08 1.17636E-03 1.50638E-04
 -1       184-1.74414E-05 9.37569E-04 1.44331E-04
 -1       185 2.39048E-08 8.15770E-04 2.72338E-04
 -1       186-3.80274E-06 5.46560E-04 2.73796E-04
 -1       187 1.28715E-08 5.07139E-04 2.90204E-04
 -1       188 3.82577E-06 5.46564E-04 2.73785E-04
 -1       189 2.36667E-09 2.21418E-04 1.44282E-04
 -1       211 1.85088E-04 1.10707E-03 6.44703E-05
 -1       212 6.14529E-07 1.17357E-03-2.08990E-08
 -1       213-1.85747E-04 1.10693E-03-6.45179E-05
 -1       214 1.63645E-07 8.93404E-04 6.15428E-08
 -1       215-3.88855E-05 4.68064E-04 1.06119E-04
 -1       216-9.43344E-08 4.51782E-04-3.06594E-09
 -1       217 3.90854E-05 4.68171E-04-1.06167E-04
 -1       218-4.22758E-08 1.55207E-04 1.40793E-09
 -1       250 3.85466E-08 1.18612E-03-6.13719E-05
 -1       251 2.57204E-07 7.32540E-04-2.37466E-08
 -1       252 6.21213E-08 1.06274E-03 5.14326E-08
 -1       253-1.51638E-07 7.32573E-04 1.66887E-08
 -1       254 6.02970E-08 1.18599E-03 6.13989E-05
 -1       255 2.67517E-08 8.44896E-04 1.89078E-09
 -1       256 1.25852E-08 4.65880E-04-1.28401E-04
 -1       257-2.38591E-08 5.55264E-04-8.63977E-09
 -1       258 1.62475E-08 4.66821E-04-4.52462E-09
 -1       259 5.10590E-08 5.55272E-04-6.67478E-10
 -1       260 1.53525E-08 4.65987E-04 1.28420E-04
 -1       261 2.00175E-09 2.01153E-04-9.66631E-09
 -3
    1PSTEP                         5           5           1          
  100CL  105 2.50000E-02          81                     1    5           1
 -4  DISP        4    1
 -5  D1          1    2    1    0
 -5  D2          1    2    2    0
 -5  D3          1    2    3    0
 -5  ALL         1    2    0    0    1ALL
 -1         5 0.00000E+00 0.00000E+00 0.00000E+00
 -1         6 0.00000E+00 0.00000E+00 0.00000E+00
 -1         7 0.00000E+00 0.00000E+00 0.00000E+00
 -1         8 0.00000E+00 0.00000E+00 0.00000E+00
 -1        21 0.00000E+00 0.00000E+00 0.00000E+00
 -1        22 0.00000E+00 0.00000E+00 0.00000E+00
 -1        23 0.00000E+00 0.00000E+00 0.00000E+00
 -1        24 0.00000E+00 0.00000E+00 0.00000E+00
 -1        25 0.00000E+00 0.00000E+00 0.00000E+00
 -1        26 0.00000E+00 0.00000E+00 0.00000E+00
 -1        27 0.00000E+00 0.00000E+00 0.00000E+00
 -1        28 0.00000E+00 0.00000E+00 0.00000E+00
 -1        29 0.00000E+00 0.00000E+00 0.00000E+00
 -1        30 0.00000E+00 0.00000E+00 0.00000E+00
 -1        31 0.00000E+00 0.00000E+00 0.00000E+00
 -1        32 0.00000E+00 0.00000E+00 0.00000E+00
 -1        44 1.95340E-04-6.33365E-04 1.17483E-04
 -1        45 5.66770E-05-5.49097E-04 1.47456E-04
 -1        46-4.88409E-05-4.05544E-04 1.77986E-04
 -1        47 3.15616E-05-1.75332E-04 1.16325E-04
 -1        48-3.15619E-05-1.75334E-04 1.16330E-04
 -1        49 4.88444E-05-4.05543E-04 1.77986E-04
 -1        50-5.66880E-05-5.49091E-04 1.47452E-04
 -1        51-1.95370E-04-6.33331E-04 1.17491E-04
 -1        74-1.94130E-04-6.34603E-04-1.17493E-04
 -1        75-5.60004E-05-5.49775E-04-1.47461E-04
 -1        76 4.84964E-05-4.05203E-04-1.77991E-04
 -1        77-3.17540E-05-1.75141E-04-1.16329E-04
 -1        89 1.94142E-04-6.34612E-04-1.17505E-04
 -1        90 5.59869E-05-5.49783E-04-1.47475E-04
 -1        91-4.84854E-05-4.05195E-04-1.77986E-04
 -1        92 3.17554E-05-1.75139E-04-1.16323E-04
 -1        98 0.00000E+00 0.00000E+00 0.00000E+00
 -1        99 0.00000E+00 0.00000E+00 0.00000E+00
 -1       100 0.00000E+00 0.00000E+00 0.00000E+00
 -1       101 0.00000E+00 0.00000E+00 0.00000E+00
 -1       102 0.00000E+00 0.00000E+00 0.00000E+00
 -1       124-1.38077E-05-7.07995E-04 1.08985E-04
 -1       125-1.55118E-08-8.88453E-04 1.13749E-04
 -1       126 1.37822E-05-7.08000E-04 1.08983E-04
 -1       127-2.70764E-09-6.16040E-04 2.05797E-04
 -1       128 3.03603E-06-4.12692E-04 2.06742E-04
 -1       129-2.17609E-09-3.82879E-04 2.19162E-04
 -1       130-3.03764E-06-4.12695E-04 2.06742E-04
 -1       131 8.33644E-10-1.67102E-04 1.08953E-04
 -1       153-1.39911E-04-8.35104E-04 4.86900E-05
 -1       154 2.38391E-07-8.85201E-04-7.96449E-09
 -1       155 1.39483E-04-8.35923E-04-4.87051E-05
 -1       156-9.64050E-09-6.74537E-04-6.34390E-08
 -1       157 2.94088E-05-3.53427E-04 8.01871E-05
 -1       158-2.60759E-08-3.40992E-04-1.72172E-08
 -1       159-2.93165E-05-3.53218E-04-8.01729E-05
 -1       160-2.60298E-09-1.17211E-04-4.82697E-09
 -1       182-1.29864E-05-7.07595E-04-1.09011E-04
 -1       183-6.54753E-09-8.88967E-04-1.13761E-04
 -1       184 1.29874E-05-7.07585E-04-1.08991E-04
 -1       185 3.92568E-09-6.16022E-04-2.05669E-04
 -1       186 2.82375E-06-4.12794E-04-2.06764E-04
 -1       187-3.08538E-09-3.82832E-04-2.19139E-04
 -1       188-2.82223E-06-4.12793E-04-2.06767E-04
 -1       189 1.72336E-09-1.67095E-04-1.08945E-04
 -1       211-1.39476E-04-8.35941E-04-4.87009E-05
 -1       212-2.60562E-07-8.85207E-04-2.09982E-08
 -1       213 1.39890E-04-8.35079E-04 4.87065E-05
 -1       214 1.57858E-08-6.74530E-04-5.96500E-08
 -1       215 2.93159E-05-3.53213E-04-8.01721E-05
 -1       216 1.88575E-08-3.40995E-04-1.28009E-08
 -1       217-2.94116E-05-3.53431E-04 8.01851E-05
 -1       218 3.77828E-09-1.17209E-04-7.42814E-09
 -1       250-4.04892E-09-8.96190E-04 4.63655E-05
 -1       251 1.45627E-07-5.53213E-04-1.05787E-08
 -1       252 1.16105E-08-8.02551E-04 1.76955E-08
 -1       253-1.43922E-07-5.53208E-04 1.35105E-08
 -1       254-7.09639E-11-8.95896E-04-4.63743E-05
 -1       255-2.83023E-09-6.37784E-04 3.75434E-10
 -1       256 9.81907E-10-3.51758E-04 9.69262E-05
 -1       257-4.57750E-08-4.19122E-04 1.10192E-08
 -1       258 3.33174E-09-3.52568E-04-2.56019E-09
 -1       259 4.58483E-08-4.19121E-04 4.87193E-09
 -1       260 6.84504E-10-3.51851E-04-9.69455E-05
 -1       261-1.36344E-09-1.51879E-04-9.29585E-10
 -3
    1PSTEP                         6           6           1          
  100CL  106 3.00000E-02          81                     1    6           1
 -4  DISP        4    1
 -5  D1          1    2    1    0
 -5  D2          1    2    2    0
 -5  D3          1    2    3    0
 -5  ALL         1    2    0    0    1ALL
 -1         5 0.00000E+00 0.00000E+00 0.00000E+00
 -1         6 0.00000E+00 0.00000E+00 0.00000E+00
 -1         7 0.00000E+00 0.00000E+00 0.00000E+00
 -1         8 0.00000E+00 0.00000E+00 0.00000E+00
 -1        21 0.00000E+00 0.00000E+00 0.00000E+00
 -1        22 0.00000E+00 0.00000E+00 0.00000E+00
 -1        23 0.00000E+00 0.00000E+00 0.00000E+00
 -1        24 0.00000E+00 0.00000E+00 0.00000E+00
 -1        25 0.00000E+00 0.00000E+00 0.00000E+00
 -1        26 0.00000E+00 0.00000E+00 0.00000E+00
 -1        27 0.00000E+00 0.00000E+00 0.00000E+00
 -1        28 0.00000E+00 0.00000E+00 0.00000E+00
 -1        29 0.00000E+00 0.00000E+00 0.00000E+00
 -1        30 0.00000E+00 0.00000E+00 0.00000E+00
 -1        31 0.00000E+00 0.00000E+00 0.00000E+00
 -1        32 0.00000E+00 0.00000E+00 0.00000E+00
 -1        44-1.41451E-04 4.59432E-04-8.51717E-05
 -1        45-4.10232E-05 3.98207E-04-1.06917E-04
 -1        46 3.54423E-05 2.94092E-04-1.29063E-04
 -1        47-2.29006E-05 1.27113E-04-8.43403E-05