    1C
    1UUSER                                                              
    1UDATE              18.july.2018                                    
    1UTIME              00:45:39                                        
    1UHOST                                                              
    1UPGM               CalculiX                                        
    1UVERSION           Version 2.13                             
    1UCOMPILETIME       jue jun 14 00:40:39 CEST 2018                    
    1UDIR                                                               
    1UDBN                                                               
    1UMAT    1EL                                                        
    2C                           201                                     1
 -1         1 0.00000E+00 0.00000E+00 0.00000E+00
 -1         2 1.00000E+00 0.00000E+00 0.00000E+00
 -1         3 1.00000E+00 1.00000E+00 0.00000E+00
 -1         4 0.00000E+00 1.00000E+00 0.00000E+00
 -1         9 2.50000E-01 0.00000E+00 0.00000E+00
 -1        10 5.00000E-01 0.00000E+00 0.00000E+00
 -1        11 7.50000E-01 0.00000E+00 0.00000E+00
 -1        12 1.00000E+00 2.50000E-01 0.00000E+00
 -1        13 1.00000E+00 5.00000E-01 0.00000E+00
 -1        14 1.00000E+00 7.50000E-01 0.00000E+00
 -1        15 7.50000E-01 1.00000E+00 0.00000E+00
 -1        16 5.00000E-01 1.00000E+00 0.00000E+00
 -1        17 2.50000E-01 1.00000E+00 0.00000E+00
 -1        18 0.00000E+00 7.50000E-01 0.00000E+00
 -1        19 0.00000E+00 5.00000E-01 0.00000E+00
 -1        20 0.00000E+00 2.50000E-01 0.00000E+00
 -1        33 1.00000E+00 0.00000E+00 5.00000E-01
 -1        34 1.00000E+00 0.00000E+00 1.00000E+00
 -1        35 1.00000E+00 0.00000E+00 1.50000E+00
 -1        36 1.00000E+00 0.00000E+00 2.00000E+00
 -1        37 1.00000E+00 0.00000E+00 2.50000E+00
 -1        38 1.00000E+00 0.00000E+00 3.00000E+00
 -1        39 1.00000E+00 0.00000E+00 3.50000E+00
 -1        40 1.00000E+00 0.00000E+00 4.00000E+00
 -1        41 1.00000E+00 0.00000E+00 4.50000E+00
 -1        42 1.00000E+00 0.00000E+00 5.00000E+00
 -1        43 1.00000E+00 0.00000E+00 5.50000E+00
 -1        44 1.00000E+00 0.00000E+00 6.00000E+00
 -1        51 0.00000E+00 0.00000E+00 6.00000E+00
 -1        52 0.00000E+00 0.00000E+00 5.50000E+00
 -1        53 0.00000E+00 0.00000E+00 5.00000E+00
 -1        54 0.00000E+00 0.00000E+00 4.50000E+00
 -1        55 0.00000E+00 0.00000E+00 4.00000E+00
 -1        56 0.00000E+00 0.00000E+00 3.50000E+00
 -1        57 0.00000E+00 0.00000E+00 3.00000E+00
 -1        58 0.00000E+00 0.00000E+00 2.50000E+00
 -1        59 0.00000E+00 0.00000E+00 2.00000E+00
 -1        60 0.00000E+00 0.00000E+00 1.50000E+00
 -1        61 0.00000E+00 0.00000E+00 1.00000E+00
 -1        62 0.00000E+00 0.00000E+00 5.00000E-01
 -1        63 1.00000E+00 1.00000E+00 5.00000E-01
 -1        64 1.00000E+00 1.00000E+00 1.00000E+00
 -1        65 1.00000E+00 1.00000E+00 1.50000E+00
 -1        66 1.00000E+00 1.00000E+00 2.00000E+00
 -1        67 1.00000E+00 1.00000E+00 2.50000E+00
 -1        68 1.00000E+00 1.00000E+00 3.00000E+00
 -1        69 1.00000E+00 1.00000E+00 3.50000E+00
 -1        70 1.00000E+00 1.00000E+00 4.00000E+00
 -1        71 1.00000E+00 1.00000E+00 4.50000E+00
 -1        72 1.00000E+00 1.00000E+00 5.00000E+00
 -1        73 1.00000E+00 1.00000E+00 5.50000E+00
 -1        74 1.00000E+00 1.00000E+00 6.00000E+00
 -1        78 0.00000E+00 1.00000E+00 5.00000E-01
 -1        79 0.00000E+00 1.00000E+00 1.00000E+00
 -1        80 0.00000E+00 1.00000E+00 1.50000E+00
 -1        81 0.00000E+00 1.00000E+00 2.00000E+00
 -1        82 0.00000E+00 1.00000E+00 2.50000E+00
 -1        83 0.00000E+00 1.00000E+00 3.00000E+00
 -1        84 0.00000E+00 1.00000E+00 3.50000E+00
 -1        85 0.00000E+00 1.00000E+00 4.00000E+00
 -1        86 0.00000E+00 1.00000E+00 4.50000E+00
 -1        87 0.00000E+00 1.00000E+00 5.00000E+00
 -1        88 0.00000E+00 1.00000E+00 5.50000E+00
 -1        89 0.00000E+00 1.00000E+00 6.00000E+00
 -1        93 5.00000E-01 2.50000E-01 0.00000E+00
 -1        94 2.50000E-01 5.00000E-01 0.00000E+00
 -1        95 5.00000E-01 5.00000E-01 0.00000E+00
 -1        96 7.50000E-01 5.00000E-01 0.00000E+00
 -1        97 5.00000E-01 7.50000E-01 0.00000E+00
 -1       103 5.00000E-01 0.00000E+00 5.00000E-01
 -1       104 2.50000E-01 0.00000E+00 1.00000E+00
 -1       105 5.00000E-01 0.00000E+00 1.00000E+00
 -1       106 7.50000E-01 0.00000E+00 1.00000E+00
 -1       107 5.00000E-01 0.00000E+00 1.50000E+00
 -1       108 2.50000E-01 0.00000E+00 2.00000E+00
 -1       109 5.00000E-01 0.00000E+00 2.00000E+00
 -1       110 7.50000E-01 0.00000E+00 2.00000E+00
 -1       111 5.00000E-01 0.00000E+00 2.50000E+00
 -1       112 2.50000E-01 0.00000E+00 3.00000E+00
 -1       113 5.00000E-01 0.00000E+00 3.00000E+00
 -1       114 7.50000E-01 0.00000E+00 3.00000E+00
 -1       115 5.00000E-01 0.00000E+00 3.50000E+00
 -1       116 2.50000E-01 0.00000E+00 4.00000E+00
 -1       117 5.00000E-01 0.00000E+00 4.00000E+00
 -1       118 7.50000E-01 0.00000E+00 4.00000E+00
 -1       119 5.00000E-01 0.00000E+00 4.50000E+00
 -1       120 2.50000E-01 0.00000E+00 5.00000E+00
 -1       121 5.00000E-01 0.00000E+00 5.00000E+00
 -1       122 7.50000E-01 0.00000E+00 5.00000E+00
 -1       123 5.00000E-01 0.00000E+00 5.50000E+00
 -1       124 2.50000E-01 0.00000E+00 6.00000E+00
 -1       125 5.00000E-01 0.00000E+00 6.00000E+00
 -1       126 7.50000E-01 0.00000E+00 6.00000E+00
 -1       132 1.00000E+00 5.00000E-01 5.00000E-01
 -1       133 1.00000E+00 2.50000E-01 1.00000E+00
 -1       134 1.00000E+00 5.00000E-01 1.00000E+00
 -1       135 1.00000E+00 7.50000E-01 1.00000E+00
 -1       136 1.00000E+00 5.00000E-01 1.50000E+00
 -1       137 1.00000E+00 2.50000E-01 2.00000E+00
 -1       138 1.00000E+00 5.00000E-01 2.00000E+00
 -1       139 1.00000E+00 7.50000E-01 2.00000E+00
 -1       140 1.00000E+00 5.00000E-01 2.50000E+00
 -1       141 1.00000E+00 2.50000E-01 3.00000E+00
 -1       142 1.00000E+00 5.00000E-01 3.00000E+00
 -1       143 1.00000E+00 7.50000E-01 3.00000E+00
 -1       144 1.00000E+00 5.00000E-01 3.50000E+00
 -1       145 1.00000E+00 2.50000E-01 4.00000E+00
 -1       146 1.00000E+00 5.00000E-01 4.00000E+00
 -1       147 1.00000E+00 7.50000E-01 4.00000E+00
 -1       148 1.00000E+00 5.00000E-01 4.50000E+00
 -1       149 1.00000E+00 2.50000E-01 5.00000E+00
 -1       150 1.00000E+00 5.00000E-01 5.00000E+00
 -1       151 1.00000E+00 7.50000E-01 5.00000E+00
 -1       152 1.00000E+00 5.00000E-01 5.50000E+00
 -1       153 1.00000E+00 2.50000E-01 6.00000E+00
 -1       154 1.00000E+00 5.00000E-01 6.00000E+00
 -1       155 1.00000E+00 7.50000E-01 6.00000E+00
 -1       161 5.00000E-01 1.00000E+00 5.00000E-01
 -1       162 7.50000E-01 1.00000E+00 1.00000E+00
 -1       163 5.00000E-01 1.00000E+00 1.00000E+00
 -1       164 2.50000E-01 1.00000E+00 1.00000E+00
 -1       165 5.00000E-01 1.00000E+00 1.50000E+00
 -1       166 7.50000E-01 1.00000E+00 2.00000E+00
 -1       167 5.00000E-01 1.00000E+00 2.00000E+00
 -1       168 2.50000E-01 1.00000E+00 2.00000E+00
 -1       169 5.00000E-01 1.00000E+00 2.50000E+00
 -1       170 7.50000E-01 1.00000E+00 3.00000E+00
 -1       171 5.00000E-01 1.00000E+00 3.00000E+00
 -1       172 2.50000E-01 1.00000E+00 3.00000E+00
 -1       173 5.00000E-01 1.00000E+00 3.50000E+00
 -1       174 7.50000E-01 1.00000E+00 4.00000E+00
 -1       175 5.00000E-01 1.00000E+00 4.00000E+00
 -1       176 2.50000E-01 1.00000E+00 4.00000E+00
 -1       177 5.00000E-01 1.00000E+00 4.50000E+00
 -1       178 7.50000E-01 1.00000E+00 5.00000E+00
 -1       179 5.00000E-01 1.00000E+00 5.00000E+00
 -1       180 2.50000E-01 1.00000E+00 5.00000E+00
 -1       181 5.00000E-01 1.00000E+00 5.50000E+00
 -1       182 7.50000E-01 1.00000E+00 6.00000E+00
 -1       183 5.00000E-01 1.00000E+00 6.00000E+00
 -1       184 2.50000E-01 1.00000E+00 6.00000E+00
 -1       190 0.00000E+00 5.00000E-01 5.00000E-01
 -1       191 0.00000E+00 7.50000E-01 1.00000E+00
 -1       192 0.00000E+00 5.00000E-01 1.00000E+00
 -1       193 0.00000E+00 2.50000E-01 1.00000E+00
 -1       194 0.00000E+00 5.00000E-01 1.50000E+00
 -1       195 0.00000E+00 7.50000E-01 2.00000E+00
 -1       196 0.00000E+00 5.00000E-01 2.00000E+00
 -1       197 0.00000E+00 2.50000E-01 2.00000E+00
 -1       198 0.00000E+00 5.00000E-01 2.50000E+00
 -1       199 0.00000E+00 7.50000E-01 3.00000E+00
 -1       200 0.00000E+00 5.00000E-01 3.00000E+00
 -1       201 0.00000E+00 2.50000E-01 3.00000E+00
 -1       202 0.00000E+00 5.00000E-01 3.50000E+00
 -1       203 0.00000E+00 7.50000E-01 4.00000E+00
 -1       204 0.00000E+00 5.00000E-01 4.00000E+00
 -1       205 0.00000E+00 2.50000E-01 4.00000E+00
 -1       206 0.00000E+00 5.00000E-01 4.50000E+00
 -1       207 0.00000E+00 7.50000E-01 5.00000E+00
 -1       208 0.00000E+00 5.00000E-01 5.00000E+00
 -1       209 0.00000E+00 2.50000E-01 5.00000E+00
 -1       210 0.00000E+00 5.00000E-01 5.50000E+00
 -1       211 0.00000E+00 7.50000E-01 6.00000E+00
 -1       212 0.00000E+00 5.00000E-01 6.00000E+00
 -1       213 0.00000E+00 2.50000E-01 6.00000E+00
 -1       219 5.00000E-01 5.00000E-01 5.00000E-01
 -1       220 5.00000E-01 2.50000E-01 1.00000E+00
 -1       221 2.50000E-01 5.00000E-01 1.00000E+00
 -1       222 5.00000E-01 5.00000E-01 1.00000E+00
 -1       223 7.50000E-01 5.00000E-01 1.00000E+00
 -1       224 5.00000E-01 7.50000E-01 1.00000E+00
 -1       225 5.00000E-01 5.00000E-01 1.50000E+00
 -1       226 5.00000E-01 2.50000E-01 2.00000E+00
 -1       227 2.50000E-01 5.00000E-01 2.00000E+00
 -1       228 5.00000E-01 5.00000E-01 2.00000E+00
 -1       229 7.50000E-01 5.00000E-01 2.00000E+00
 -1       230 5.00000E-01 7.50000E-01 2.00000E+00
 -1       231 5.00000E-01 5.00000E-01 2.50000E+00
 -1       232 5.00000E-01 2.50000E-01 3.00000E+00
 -1       233 2.50000E-01 5.00000E-01 3.00000E+00
 -1       234 5.00000E-01 5.00000E-01 3.00000E+00
 -1       235 7.50000E-01 5.00000E-01 3.00000E+00
 -1       236 5.00000E-01 7.50000E-01 3.00000E+00
 -1       237 5.00000E-01 5.00000E-01 3.50000E+00
 -1       238 5.00000E-01 2.50000E-01 4.00000E+00
 -1       239 2.50000E-01 5.00000E-01 4.00000E+00
 -1       240 5.00000E-01 5.00000E-01 4.00000E+00
 -1       241 7.50000E-01 5.00000E-01 4.00000E+00
 -1       242 5.00000E-01 7.50000E-01 4.00000E+00
 -1       243 5.00000E-01 5.00000E-01 4.50000E+00
 -1       244 5.00000E-01 2.50000E-01 5.00000E+00
 -1       245 2.50000E-01 5.00000E-01 5.00000E+00
 -1       246 5.00000E-01 5.00000E-01 5.00000E+00
 -1       247 7.50000E-01 5.00000E-01 5.00000E+00
 -1       248 5.00000E-01 7.50000E-01 5.00000E+00
 -1       249 5.00000E-01 5.00000E-01 5.50000E+00
 -1       250 5.00000E-01 2.50000E-01 6.00000E+00
 -1       251 2.50000E-01 5.00000E-01 6.00000E+00
 -1       252 5.00000E-01 5.00000E-01 6.00000E+00
 -1       253 7.50000E-01 5.00000E-01 6.00000E+00
 -1       254 5.00000E-01 7.50000E-01 6.00000E+00
 -3
    3C                            24                                     1
 -1         1    4    0    1
 -2         1        10        95        19        61       105       222       192         9        93
 -2        94        20        62       103       219       190       104       220       221       193
 -1         2    4    0    1
 -2        10         2        13        95       105        34       134       222        11        12
 -2        96        93       103        33       132       219       106       133       223       220
 -1         3    4    0    1
 -2        19        95        16         4       192       222       163        79        94        97
 -2        17        18       190       219       161        78       221       224       164       191
 -1         4    4    0    1
 -2        95        13         3        16       222       134        64       163        96        14
 -2        15        97       219       132        63       161       223       135       162       224
 -1         5    4    0    1
 -2        61       105       222       192        59       109       228       196       104       220
 -2       221       193        60       107       225       194       108       226       227       197
 -1         6    4    0    1
 -2       105        34       134       222       109        36       138       228       106       133
 -2       223       220       107        35       136       225       110       137       229       226
 -1         7    4    0    1
 -2       192       222       163        79       196       228       167        81       221       224
 -2       164       191       194       225       165        80       227       230       168       195
 -1         8    4    0    1
 -2       222       134        64       163       228       138        66       167       223       135
 -2       162       224       225       136        65       165       229       139       166       230
 -1         9    4    0    1
 -2        59       109       228       196        57       113       234       200       108       226
 -2       227       197        58       111       231       198       112       232       233       201
 -1        10    4    0    1
 -2       109        36       138       228       113        38       142       234       110       137
 -2       229       226       111        37       140       231       114       141       235       232
 -1        11    4    0    1
 -2       196       228       167        81       200       234       171        83       227       230
 -2       168       195       198       231       169        82       233       236       172       199
 -1        12    4    0    1
 -2       228       138        66       167       234       142        68       171       229       139
 -2       166       230       231       140        67       169       235       143       170       236
 -1        13    4    0    1
 -2        57       113       234       200        55       117       240       204       112       232
 -2       233       201        56       115       237       202       116       238       239       205
 -1        14    4    0    1
 -2       113        38       142       234       117        40       146       240       114       141
 -2       235       232       115        39       144       237       118       145       241       238
 -1        15    4    0    1
 -2       200       234       171        83       204       240       175        85       233       236
 -2       172       199       202       237       173        84       239       242       176       203
 -1        16    4    0    1
 -2       234       142        68       171       240       146        70       175       235       143
 -2       170       236       237       144        69       173       241       147       174       242
 -1        17    4    0    1
 -2        55       117       240       204        53       121       246       208       116       238
 -2       239       205        54       119       243       206       120       244       245       209
 -1        18    4    0    1
 -2       117        40       146       240       121        42       150       246       118       145
 -2       241       238       119        41       148       243       122       149       247       244
 -1        19    4    0    1
 -2       204       240       175        85       208       246       179        87       239       242
 -2       176       203       206       243       177        86       245       248       180       207
 -1        20    4    0    1
 -2       240       146        70       175       246       150        72       179       241       147
 -2       174       242       243       148        71       177       247       151       178       248
 -1        21    4    0    1
 -2        53       121       246       208        51       125       252       212       120       244
 -2       245       209        52       123       249       210       124       250       251       213
 -1        22    4    0    1
 -2       121        42       150       246       125        44       154       252       122       149
 -2       247       244       123        43       152       249       126       153       253       250
 -1        23    4    0    1
 -2       208       246       179        87       212       252       183        89       245       248
 -2       180       207       210       249       181        88       251       254       184       211
 -1        24    4    0    1
 -2       246       150        72       179       252       154        74       183       247       151
 -2       178       248       249       152        73       181       253       155       182       254
 -3
    1PSTEP                         1           1           1          
  100CL  101 5.00000E-03         201                     1    1           1
 -4  DISP        4    1
 -5  D1          1    2    1    0
 -5  D2          1    2    2    0
 -5  D3          1    2    3    0
 -5  ALL         1    2    0    0    1ALL
 -1         1 0.00000E+00 0.00000E+00 0.00000E+00
 -1         2 0.00000E+00 0.00000E+00 0.00000E+00
 -1         3 0.00000E+00 0.00000E+00 0.00000E+00
 -1         4 0.00000E+00 0.00000E+00 0.00000E+00
 -1         9 0.00000E+00 0.00000E+00 0.00000E+00
 -1        10 0.00000E+00 0.00000E+00 0.00000E+00
 -1        11 0.00000E+00 0.00000E+00 0.00000E+00
 -1        12 0.00000E+00 0.00000E+00 0.00000E+00
 -1        13 0.00000E+00 0.00000E+00 0.00000E+00
 -1        14 0.00000E+00 0.00000E+00 0.00000E+00
 -1        15 0.00000E+00 0.00000E+00 0.00000E+00
 -1        16 0.00000E+00 0.00000E+00 0.00000E+00
 -1        17 0.00000E+00 0.00000E+00 0.00000E+00
 -1        18 0.00000E+00 0.00000E+00 0.00000E+00
 -1        19 0.00000E+00 0.00000E+00 0.00000E+00
 -1        20 0.00000E+00 0.00000E+00 0.00000E+00
 -1        33 9.21965E-05-1.48595E-04-1.84718E-04
 -1        34 3.87356E-05-4.59699E-04-3.62564E-04
 -1        35 3.58529E-05-9.46287E-04-4.74464E-04
 -1        36 1.30809E-05-1.49773E-03-5.40281E-04
 -1        37-9.27411E-06-2.08369E-03-5.42597E-04
 -1        38-3.69751E-05-2.66445E-03-5.08519E-04
 -1        39-4.58667E-05-3.15269E-03-3.73854E-04
 -1        40-2.72779E-05-3.48773E-03-2.26262E-04
 -1        41-1.15493E-04-3.57323E-03-7.58778E-05
 -1        42-2.39162E-04-3.72896E-03-1.03501E-04
 -1        43 3.23152E-04-3.23262E-03 2.01827E-04
 -1        44 6.80685E-04-2.79597E-03 4.78500E-04
 -1        51-6.80587E-04-2.79592E-03 4.78397E-04
 -1        52-3.22984E-04-3.23264E-03 2.01742E-04
 -1        53 2.39407E-04-3.72895E-03-1.03531E-04
 -1        54 1.15731E-04-3.57324E-03-7.58877E-05
 -1        55 2.75271E-05-3.48773E-03-2.26254E-04
 -1        56 4.60883E-05-3.15270E-03-3.73835E-04
 -1        57 3.71711E-05-2.66445E-03-5.08487E-04
 -1        58 9.42766E-06-2.08369E-03-5.42561E-04
 -1        59-1.29680E-05-1.49773E-03-5.40242E-04
 -1        60-3.57818E-05-9.46285E-04-4.74430E-04
 -1        61-3.87004E-05-4.59696E-04-3.62537E-04
 -1        62-9.21852E-05-1.48588E-04-1.84704E-04
 -1        63-9.01239E-05-1.45798E-04 1.80544E-04
 -1        64-3.83163E-05-4.58641E-04 3.53698E-04
 -1        65-3.21689E-05-9.45218E-04 4.61190E-04
 -1        66-1.16222E-05-1.50489E-03 5.23656E-04
 -1        67 8.83601E-06-2.07128E-03 5.20348E-04
 -1        68 2.83104E-05-2.66213E-03 4.79208E-04
 -1        69 6.72208E-05-3.16690E-03 3.39501E-04
 -1        70 5.78074E-05-3.59131E-03 1.93707E-04
 -1        71 4.60580E-05-3.42209E-03 3.25311E-05
 -1        72 2.05925E-05-3.39964E-03 2.65877E-05
 -1        73 3.66910E-05-3.76051E-03-2.99709E-04
 -1        74-2.49447E-04-3.95979E-03-5.36303E-04
 -1        78 9.01352E-05-1.45805E-04 1.80558E-04
 -1        79 3.83515E-05-4.58644E-04 3.53725E-04
 -1        80 3.22399E-05-9.45220E-04 4.61224E-04
 -1        81 1.17350E-05-1.50489E-03 5.23695E-04
 -1        82-8.68258E-06-2.07127E-03 5.20385E-04
 -1        83-2.81145E-05-2.66213E-03 4.79240E-04
 -1        84-6.69993E-05-3.16690E-03 3.39521E-04
 -1        85-5.75583E-05-3.59130E-03 1.93716E-04
 -1        86-4.58202E-05-3.42208E-03 3.25212E-05
 -1        87-2.03477E-05-3.39964E-03 2.65580E-05
 -1        88-3.65232E-05-3.76049E-03-2.99794E-04
 -1        89 2.49545E-04-3.95984E-03-5.36406E-04
 -1        93 0.00000E+00 0.00000E+00 0.00000E+00
 -1        94 0.00000E+00 0.00000E+00 0.00000E+00
 -1        95 0.00000E+00 0.00000E+00 0.00000E+00
 -1        96 0.00000E+00 0.00000E+00 0.00000E+00
 -1        97 0.00000E+00 0.00000E+00 0.00000E+00
 -1       103 3.92585E-09-1.86035E-04-1.81326E-04
 -1       104-1.96999E-05-4.86245E-04-3.71142E-04
 -1       105 1.70670E-08-4.90637E-04-3.74055E-04
 -1       106 1.97339E-05-4.86246E-04-3.71155E-04
 -1       107 3.49424E-08-9.59459E-04-4.78369E-04
 -1       108-4.43229E-06-1.50580E-03-5.43887E-04
 -1       109 5.56163E-08-1.52027E-03-5.42945E-04
 -1       110 4.54432E-06-1.50580E-03-5.43905E-04
 -1       111 7.79049E-08-2.06537E-03-5.44311E-04
 -1       112 1.14105E-05-2.68326E-03-5.20891E-04
 -1       113 9.60678E-08-2.68086E-03-5.28119E-04
 -1       114-1.12157E-05-2.68326E-03-5.20906E-04
 -1       115 1.13910E-07-3.11771E-03-3.87421E-04
 -1       116 4.08106E-05-3.50069E-03-2.05134E-04
 -1       117 1.19122E-07-3.63074E-03-1.73125E-04
 -1       118-4.05668E-05-3.50069E-03-2.05138E-04
 -1       119 1.27138E-07-3.44560E-03-4.32128E-05
 -1       120 3.54999E-05-3.76674E-03-1.12522E-04
 -1       121 1.08627E-07-3.65963E-03-1.61372E-04
 -1       122-3.52647E-05-3.76674E-03-1.12501E-04
 -1       123 9.43755E-08-3.51330E-03-8.29137E-05
 -1       124-6.69210E-05-3.14527E-03 4.45385E-04
 -1       125 2.11561E-08-3.87291E-03 4.73220E-04
 -1       126 6.69859E-05-3.14529E-03 4.45410E-04
 -1       132 1.15039E-06-9.94200E-05-1.86636E-06
 -1       133 2.04884E-05-4.43340E-04-1.73177E-04
 -1       134 1.25871E-06-4.48624E-04-3.77674E-06
 -1       135-1.91255E-05-4.43144E-04 1.64608E-04
 -1       136 2.35553E-07-9.22381E-04-6.92607E-06
 -1       137 4.96020E-06-1.49560E-03-2.66669E-04
 -1       138 1.08123E-06-1.49154E-03-9.54454E-06
 -1       139-3.21084E-06-1.49782E-03 2.49957E-04
 -1       140 2.09834E-06-2.09307E-03-1.12800E-05
 -1       141-7.25324E-06-2.65223E-03-2.43407E-04
 -1       142 5.92789E-06-2.64630E-03-7.57623E-06
 -1       143 9.83680E-06-2.65630E-03 2.17664E-04
 -1       144-8.59341E-06-3.20763E-03-1.67600E-05
 -1       145-5.63089E-05-3.51483E-03-1.32962E-04
 -1       146-9.49164E-06-3.46658E-03-3.10695E-05
 -1       147 5.21082E-05-3.54772E-03 9.48253E-05
 -1       148 2.38739E-05-3.58382E-03-2.71430E-05
 -1       149 7.33078E-05-3.39474E-03-4.87538E-05
 -1       150 8.41879E-05-3.24844E-03-1.40572E-05
 -1       151-6.18758E-05-3.28711E-03-2.06036E-05
 -1       152-1.26844E-04-3.83985E-03 1.43925E-05
 -1       153-3.55032E-04-3.23819E-03 1.79563E-04
 -1       154-8.33699E-05-2.91207E-03-3.12602E-05
 -1       155 3.04973E-04-3.63106E-03-2.39668E-04
 -1       161 3.91211E-09-1.83925E-04 1.76977E-04
 -1       162-1.93487E-05-4.85031E-04 3.62771E-04
 -1       163 1.70422E-08-4.87143E-04 3.64832E-04
 -1       164 1.93826E-05-4.85032E-04 3.62783E-04
 -1       165 3.49047E-08-9.59158E-04 4.66080E-04
 -1       166-4.45357E-06-1.50189E-03 5.25724E-04
 -1       167 5.55689E-08-1.51471E-03 5.27556E-04
 -1       168 4.56550E-06-1.50189E-03 5.25742E-04
 -1       169 7.78422E-08-2.06598E-03 5.19145E-04
 -1       170 1.00260E-05-2.68272E-03 4.94969E-04
 -1       171 9.59994E-08-2.64471E-03 4.92456E-04
 -1       172-9.83139E-06-2.68272E-03 4.94984E-04
 -1       173 1.13820E-07-3.14087E-03 3.61418E-04
 -1       174 4.30893E-05-3.43916E-03 1.61380E-04
 -1       175 1.19036E-07-3.55733E-03 1.54207E-04
 -1       176-4.28458E-05-3.43915E-03 1.61384E-04
 -1       177 1.27022E-07-3.39399E-03-1.95355E-05
 -1       178-3.87695E-05-3.88368E-03 7.21398E-05
 -1       179 1.08540E-07-3.46080E-03 8.92309E-05
 -1       180 3.90044E-05-3.88368E-03 7.21189E-05
 -1       181 9.41807E-08-3.72310E-03-2.84879E-05
 -1       182 2.90486E-05-2.66437E-03-4.96866E-04
 -1       183 2.10990E-08-4.74720E-03-5.02731E-04
 -1       184-2.89838E-05-2.66439E-03-4.96891E-04
 -1       190-1.13630E-06-9.94200E-05-1.85306E-06
 -1       191 1.91628E-05-4.43146E-04 1.64635E-04
 -1       192-1.22093E-06-4.48624E-04-3.74904E-06
 -1       193-2.04511E-05-4.43339E-04-1.73150E-04
 -1       194-1.63958E-07-9.22381E-04-6.89169E-06
 -1       195 3.32472E-06-1.49782E-03 2.49997E-04
 -1       196-9.66362E-07-1.49154E-03-9.50514E-06
 -1       197-4.84627E-06-1.49560E-03-2.66629E-04
 -1       198-1.94676E-06-2.09307E-03-1.12433E-05
 -1       199-9.64052E-06-2.65630E-03 2.17696E-04
 -1       200-5.73019E-06-2.64630E-03-7.54243E-06
 -1       201 7.44961E-06-2.65223E-03-2.43375E-04
 -1       202 8.81074E-06-3.20763E-03-1.67418E-05
 -1       203-5.18565E-05-3.54772E-03 9.48356E-05
 -1       204 9.74672E-06-3.46658E-03-3.10601E-05
 -1       205 5.65607E-05-3.51483E-03-1.32952E-04
 -1       206-2.36485E-05-3.58382E-03-2.71516E-05
 -1       207 6.21244E-05-3.28711E-03-2.06276E-05
 -1       208-8.39295E-05-3.24844E-03-1.40654E-05
 -1       209-7.30590E-05-3.39474E-03-4.87777E-05
 -1       210 1.27004E-04-3.83985E-03 1.42881E-05
 -1       211-3.04828E-04-3.63108E-03-2.39762E-04
 -1       212 8.35510E-05-2.91207E-03-3.13863E-05
 -1       213 3.55177E-04-3.23817E-03 1.79469E-04
 -1       219 5.32417E-09-1.36584E-04-1.65598E-06
 -1       220 1.77291E-08-4.69862E-04-1.80443E-04
 -1       221-5.85198E-07-4.70687E-04-4.55599E-06
 -1       222 1.76504E-08-4.71416E-04-4.69854E-06
 -1       223 6.20979E-07-4.70687E-04-4.56921E-06
 -1       224 1.77164E-08-4.67951E-04 1.71655E-04
 -1       225 3.56798E-08-9.39053E-04-6.53665E-06
 -1       226 5.52652E-08-1.50662E-03-2.73326E-04
 -1       227-4.93207E-07-1.48989E-03-8.66337E-06
 -1       228 5.49182E-08-1.49165E-03-1.01246E-05
 -1       229 6.05393E-07-1.48989E-03-8.68249E-06
 -1       230 5.52417E-08-1.50418E-03 2.53901E-04
 -1       231 7.81283E-08-2.09589E-03-9.76442E-06
 -1       232 9.45705E-08-2.65620E-03-2.50492E-04
 -1       233-2.61371E-06-2.64600E-03-1.57305E-05
 -1       234 9.34778E-08-2.63480E-03-1.69886E-05
 -1       235 2.80706E-06-2.64600E-03-1.57462E-05
 -1       236 9.45348E-08-2.63715E-03 2.21185E-04
 -1       237 1.13618E-07-3.16649E-03-1.30204E-05
 -1       238 1.15848E-07-3.57480E-03-1.29892E-04
 -1       239 6.09768E-06-3.41254E-03-1.84993E-05
 -1       240 1.13409E-07-3.45173E-03-2.34213E-05
 -1       241-5.85801E-06-3.41254E-03-1.85068E-05
 -1       242 1.15810E-07-3.53808E-03 8.41547E-05
 -1       243 1.28869E-07-3.58356E-03-2.67567E-05
 -1       244 1.02849E-07-3.46201E-03-2.26650E-05
 -1       245-4.24137E-05-3.53138E-03-3.72582E-05
 -1       246 9.82083E-08-3.47841E-03-2.78946E-05
 -1       247 4.26486E-05-3.53138E-03-3.72352E-05
 -1       248 1.02782E-07-3.38187E-03-1.18130E-05
 -1       249 9.45106E-08-3.57125E-03-2.15669E-05
 -1       250 1.31125E-08-4.09494E-03 1.60391E-04
 -1       251 5.40719E-05-2.50981E-03-2.26548E-05
 -1       252 7.17505E-09-3.45702E-03-2.05580E-05
 -1       253-5.39873E-05-2.50981E-03-2.26716E-05
 -1       254 1.31746E-08-4.42749E-03-2.47458E-04
 -3
    1PSTEP                         2           2           1          
  100CL  102 1.00000E-02         201                     1    2           1
 -4  DISP        4    1
 -5  D1          1    2    1    0
 -5  D2          1    2    2    0
 -5  D3          1    2    3    0
 -5  ALL         1    2    0    0    1ALL
 -1         1 0.00000E+00 0.00000E+00 0.00000E+00
 -1         2 0.00000E+00 0.00000E+00 0.00000E+00
 -1         3 0.00000E+00 0.00000E+00 0.00000E+00
 -1         4 0.00000E+00 0.00000E+00 0.00000E+00
 -1         9 0.00000E+00 0.00000E+00 0.00000E+00
 -1        10 0.00000E+00 0.00000E+00 0.00000E+00
 -1        11 0.00000E+00 0.00000E+00 0.00000E+00
 -1        12 0.00000E+00 0.00000E+00 0.00000E+00
 -1        13 0.00000E+00 0.00000E+00 0.00000E+00
 -1        14 0.00000E+00 0.00000E+00 0.00000E+00
 -1        15 0.00000E+00 0.00000E+00 0.00000E+00
 -1        16 0.00000E+00 0.00000E+00 0.00000E+00
 -1        17 0.00000E+00 0.00000E+00 0.00000E+00
 -1        18 0.00000E+00 0.00000E+00 0.00000E+00
 -1        19 0.00000E+00 0.00000E+00 0.00000E+00
 -1        20 0.00000E+00 0.00000E+00 0.00000E+00
 -1        33-4.66377E-05 7.63877E-05 9.39979E-05
 -1        34-1.91818E-05 2.35447E-04 1.83026E-04
 -1        35-1.77669E-05 4.85627E-04 2.39886E-04
 -1        36-6.18098E-06 7.65528E-04 2.71338E-04
 -1        37 5.90627E-06 1.06922E-03 2.71297E-04
 -1        38 2.16302E-05 1.36285E-03 2.45817E-04
 -1        39 2.45563E-05 1.60810E-03 1.80702E-04
 -1        40 1.23977E-05 1.77309E-03 9.90880E-05
 -1        41 5.87373E-05 1.82875E-03 2.64306E-05
 -1        42 1.13436E-04 1.85344E-03-2.30545E-05
 -1        43-1.24353E-04 1.64197E-03-1.43934E-04
 -1        44-4.28277E-04 1.35412E-03-2.52998E-04
 -1        51 4.28437E-04 1.35400E-03-2.53005E-04
 -1        52 1.24450E-04 1.64187E-03-1.43938E-04
 -1        53-1.13335E-04 1.85335E-03-2.30399E-05
 -1        54-5.86500E-05 1.82865E-03 2.64314E-05
 -1        55-1.23153E-05 1.77301E-03 9.90891E-05
 -1        56-2.44926E-05 1.60803E-03 1.80701E-04
 -1        57-2.15728E-05 1.36279E-03 2.45818E-04
 -1        58-5.86073E-06 1.06917E-03 2.71297E-04
 -1        59 6.21905E-06 7.65489E-04 2.71337E-04
 -1        60 1.77944E-05 4.85597E-04 2.39885E-04
 -1        61 1.92004E-05 2.35428E-04 1.83026E-04
 -1        62 4.66462E-05 7.63785E-05 9.39974E-05
 -1        63 4.66357E-05 7.63644E-05-9.39764E-05
 -1        64 1.91968E-05 2.35424E-04-1.82981E-04
 -1        65 1.77148E-05 4.85654E-04-2.39819E-04
 -1        66 6.10421E-06 7.65634E-04-2.71254E-04
 -1        67-5.79229E-06 1.06904E-03-2.71183E-04
 -1        68-2.12663E-05 1.36251E-03-2.45668E-04
 -1        69-2.51248E-05 1.60863E-03-1.80535E-04
 -1        70-1.35476E-05 1.77464E-03-9.89304E-05
 -1        71-5.68215E-05 1.82638E-03-2.61971E-05
 -1        72-1.06904E-04 1.84633E-03 2.34488E-05
 -1        73 1.15607E-04 1.65161E-03 1.44371E-04
 -1        74 4.13952E-04 1.37259E-03 2.53212E-04
 -1        78-4.66449E-05 7.63557E-05-9.39767E-05