    1C
    1UUSER                                                              
    1UDATE              18.july.2018                                    
    1UTIME              00:56:22                                        
    1UHOST                                                              
    1UPGM               CalculiX                                        
    1UVERSION           Version 2.13                             
    1UCOMPILETIME       jue jun 14 00:40:39 CEST 2018                    
    1UDIR                                                               
    1UDBN                                                               
    1UMAT    1EL                                                        
    2C                           201                                     1
 -1         1 0.00000E+00 0.00000E+00 0.00000E+00
 -1         2 1.00000E+00 0.00000E+00 0.00000E+00
 -1         3 1.00000E+00 1.00000E+00 0.00000E+00
 -1         4 0.00000E+00 1.00000E+00 0.00000E+00
 -1         9 2.50000E-01 0.00000E+00 0.00000E+00
 -1        10 5.00000E-01 0.00000E+00 0.00000E+00
 -1        11 7.50000E-01 0.00000E+00 0.00000E+00
 -1        12 1.00000E+00 2.50000E-01 0.00000E+00
 -1        13 1.00000E+00 5.00000E-01 0.00000E+00
 -1        14 1.00000E+00 7.50000E-01 0.00000E+00
 -1        15 7.50000E-01 1.00000E+00 0.00000E+00
 -1        16 5.00000E-01 1.00000E+00 0.00000E+00
 -1        17 2.50000E-01 1.00000E+00 0.00000E+00
 -1        18 0.00000E+00 7.50000E-01 0.00000E+00
 -1        19 0.00000E+00 5.00000E-01 0.00000E+00
 -1        20 0.00000E+00 2.50000E-01 0.00000E+00
 -1        33 1.00000E+00 0.00000E+00 5.00000E-01
 -1        34 1.00000E+00 0.00000E+00 1.00000E+00
 -1        35 1.00000E+00 0.00000E+00 1.50000E+00
 -1        36 1.00000E+00 0.00000E+00 2.00000E+00
 -1        37 1.00000E+00 0.00000E+00 2.50000E+00
 -1        38 1.00000E+00 0.00000E+00 3.00000E+00
 -1        39 1.00000E+00 0.00000E+00 3.50000E+00
 -1        40 1.00000E+00 0.00000E+00 4.00000E+00
 -1        41 1.00000E+00 0.00000E+00 4.50000E+00
 -1        42 1.00000E+00 0.00000E+00 5.00000E+00
 -1        43 1.00000E+00 0.00000E+00 5.50000E+00
 -1        44 1.00000E+00 0.00000E+00 6.00000E+00
 -1        51 0.00000E+00 0.00000E+00 6.00000E+00
 -1        52 0.00000E+00 0.00000E+00 5.50000E+00
 -1        53 0.00000E+00 0.00000E+00 5.00000E+00
 -1        54 0.00000E+00 0.00000E+00 4.50000E+00
 -1        55 0.00000E+00 0.00000E+00 4.00000E+00
 -1        56 0.00000E+00 0.00000E+00 3.50000E+00
 -1        57 0.00000E+00 0.00000E+00 3.00000E+00
 -1        58 0.00000E+00 0.00000E+00 2.50000E+00
 -1        59 0.00000E+00 0.00000E+00 2.00000E+00
 -1        60 0.00000E+00 0.00000E+00 1.50000E+00
 -1        61 0.00000E+00 0.00000E+00 1.00000E+00
 -1        62 0.00000E+00 0.00000E+00 5.00000E-01
 -1        63 1.00000E+00 1.00000E+00 5.00000E-01
 -1        64 1.00000E+00 1.00000E+00 1.00000E+00
 -1        65 1.00000E+00 1.00000E+00 1.50000E+00
 -1        66 1.00000E+00 1.00000E+00 2.00000E+00
 -1        67 1.00000E+00 1.00000E+00 2.50000E+00
 -1        68 1.00000E+00 1.00000E+00 3.00000E+00
 -1        69 1.00000E+00 1.00000E+00 3.50000E+00
 -1        70 1.00000E+00 1.00000E+00 4.00000E+00
 -1        71 1.00000E+00 1.00000E+00 4.50000E+00
 -1        72 1.00000E+00 1.00000E+00 5.00000E+00
 -1        73 1.00000E+00 1.00000E+00 5.50000E+00
 -1        74 1.00000E+00 1.00000E+00 6.00000E+00
 -1        78 0.00000E+00 1.00000E+00 5.00000E-01
 -1        79 0.00000E+00 1.00000E+00 1.00000E+00
 -1        80 0.00000E+00 1.00000E+00 1.50000E+00
 -1        81 0.00000E+00 1.00000E+00 2.00000E+00
 -1        82 0.00000E+00 1.00000E+00 2.50000E+00
 -1        83 0.00000E+00 1.00000E+00 3.00000E+00
 -1        84 0.00000E+00 1.00000E+00 3.50000E+00
 -1        85 0.00000E+00 1.00000E+00 4.00000E+00
 -1        86 0.00000E+00 1.00000E+00 4.50000E+00
 -1        87 0.00000E+00 1.00000E+00 5.00000E+00
 -1        88 0.00000E+00 1.00000E+00 5.50000E+00
 -1        89 0.00000E+00 1.00000E+00 6.00000E+00
 -1        93 5.00000E-01 2.50000E-01 0.00000E+00
 -1        94 2.50000E-01 5.00000E-01 0.00000E+00
 -1        95 5.00000E-01 5.00000E-01 0.00000E+00
 -1        96 7.50000E-01 5.00000E-01 0.00000E+00
 -1        97 5.00000E-01 7.50000E-01 0.00000E+00
 -1       103 5.00000E-01 0.00000E+00 5.00000E-01
 -1       104 2.50000E-01 0.00000E+00 1.00000E+00
 -1       105 5.00000E-01 0.00000E+00 1.00000E+00
 -1       106 7.50000E-01 0.00000E+00 1.00000E+00
 -1       107 5.00000E-01 0.00000E+00 1.50000E+00
 -1       108 2.50000E-01 0.00000E+00 2.00000E+00
 -1       109 5.00000E-01 0.00000E+00 2.00000E+00
 -1       110 7.50000E-01 0.00000E+00 2.00000E+00
 -1       111 5.00000E-01 0.00000E+00 2.50000E+00
 -1       112 2.50000E-01 0.00000E+00 3.00000E+00
 -1       113 5.00000E-01 0.00000E+00 3.00000E+00
 -1       114 7.50000E-01 0.00000E+00 3.00000E+00
 -1       115 5.00000E-01 0.00000E+00 3.50000E+00
 -1       116 2.50000E-01 0.00000E+00 4.00000E+00
 -1       117 5.00000E-01 0.00000E+00 4.00000E+00
 -1       118 7.50000E-01 0.00000E+00 4.00000E+00
 -1       119 5.00000E-01 0.00000E+00 4.50000E+00
 -1       120 2.50000E-01 0.00000E+00 5.00000E+00
 -1       121 5.00000E-01 0.00000E+00 5.00000E+00
 -1       122 7.50000E-01 0.00000E+00 5.00000E+00
 -1       123 5.00000E-01 0.00000E+00 5.50000E+00
 -1       124 2.50000E-01 0.00000E+00 6.00000E+00
 -1       125 5.00000E-01 0.00000E+00 6.00000E+00
 -1       126 7.50000E-01 0.00000E+00 6.00000E+00
 -1       132 1.00000E+00 5.00000E-01 5.00000E-01
 -1       133 1.00000E+00 2.50000E-01 1.00000E+00
 -1       134 1.00000E+00 5.00000E-01 1.00000E+00
 -1       135 1.00000E+00 7.50000E-01 1.00000E+00
 -1       136 1.00000E+00 5.00000E-01 1.50000E+00
 -1       137 1.00000E+00 2.50000E-01 2.00000E+00
 -1       138 1.00000E+00 5.00000E-01 2.00000E+00
 -1       139 1.00000E+00 7.50000E-01 2.00000E+00
 -1       140 1.00000E+00 5.00000E-01 2.50000E+00
 -1       141 1.00000E+00 2.50000E-01 3.00000E+00
 -1       142 1.00000E+00 5.00000E-01 3.00000E+00
 -1       143 1.00000E+00 7.50000E-01 3.00000E+00
 -1       144 1.00000E+00 5.00000E-01 3.50000E+00
 -1       145 1.00000E+00 2.50000E-01 4.00000E+00
 -1       146 1.00000E+00 5.00000E-01 4.00000E+00
 -1       147 1.00000E+00 7.50000E-01 4.00000E+00
 -1       148 1.00000E+00 5.00000E-01 4.50000E+00
 -1       149 1.00000E+00 2.50000E-01 5.00000E+00
 -1       150 1.00000E+00 5.00000E-01 5.00000E+00
 -1       151 1.00000E+00 7.50000E-01 5.00000E+00
 -1       152 1.00000E+00 5.00000E-01 5.50000E+00
 -1       153 1.00000E+00 2.50000E-01 6.00000E+00
 -1       154 1.00000E+00 5.00000E-01 6.00000E+00
 -1       155 1.00000E+00 7.50000E-01 6.00000E+00
 -1       161 5.00000E-01 1.00000E+00 5.00000E-01
 -1       162 7.50000E-01 1.00000E+00 1.00000E+00
 -1       163 5.00000E-01 1.00000E+00 1.00000E+00
 -1       164 2.50000E-01 1.00000E+00 1.00000E+00
 -1       165 5.00000E-01 1.00000E+00 1.50000E+00
 -1       166 7.50000E-01 1.00000E+00 2.00000E+00
 -1       167 5.00000E-01 1.00000E+00 2.00000E+00
 -1       168 2.50000E-01 1.00000E+00 2.00000E+00
 -1       169 5.00000E-01 1.00000E+00 2.50000E+00
 -1       170 7.50000E-01 1.00000E+00 3.00000E+00
 -1       171 5.00000E-01 1.00000E+00 3.00000E+00
 -1       172 2.50000E-01 1.00000E+00 3.00000E+00
 -1       173 5.00000E-01 1.00000E+00 3.50000E+00
 -1       174 7.50000E-01 1.00000E+00 4.00000E+00
 -1       175 5.00000E-01 1.00000E+00 4.00000E+00
 -1       176 2.50000E-01 1.00000E+00 4.00000E+00
 -1       177 5.00000E-01 1.00000E+00 4.50000E+00
 -1       178 7.50000E-01 1.00000E+00 5.00000E+00
 -1       179 5.00000E-01 1.00000E+00 5.00000E+00
 -1       180 2.50000E-01 1.00000E+00 5.00000E+00
 -1       181 5.00000E-01 1.00000E+00 5.50000E+00
 -1       182 7.50000E-01 1.00000E+00 6.00000E+00
 -1       183 5.00000E-01 1.00000E+00 6.00000E+00
 -1       184 2.50000E-01 1.00000E+00 6.00000E+00
 -1       190 0.00000E+00 5.00000E-01 5.00000E-01
 -1       191 0.00000E+00 7.50000E-01 1.00000E+00
 -1       192 0.00000E+00 5.00000E-01 1.00000E+00
 -1       193 0.00000E+00 2.50000E-01 1.00000E+00
 -1       194 0.00000E+00 5.00000E-01 1.50000E+00
 -1       195 0.00000E+00 7.50000E-01 2.00000E+00
 -1       196 0.00000E+00 5.00000E-01 2.00000E+00
 -1       197 0.00000E+00 2.50000E-01 2.00000E+00
 -1       198 0.00000E+00 5.00000E-01 2.50000E+00
 -1       199 0.00000E+00 7.50000E-01 3.00000E+00
 -1       200 0.00000E+00 5.00000E-01 3.00000E+00
 -1       201 0.00000E+00 2.50000E-01 3.00000E+00
 -1       202 0.00000E+00 5.00000E-01 3.50000E+00
 -1       203 0.00000E+00 7.50000E-01 4.00000E+00
 -1       204 0.00000E+00 5.00000E-01 4.00000E+00
 -1       205 0.00000E+00 2.50000E-01 4.00000E+00
 -1       206 0.00000E+00 5.00000E-01 4.50000E+00
 -1       207 0.00000E+00 7.50000E-01 5.00000E+00
 -1       208 0.00000E+00 5.00000E-01 5.00000E+00
 -1       209 0.00000E+00 2.50000E-01 5.00000E+00
 -1       210 0.00000E+00 5.00000E-01 5.50000E+00
 -1       211 0.00000E+00 7.50000E-01 6.00000E+00
 -1       212 0.00000E+00 5.00000E-01 6.00000E+00
 -1       213 0.00000E+00 2.50000E-01 6.00000E+00
 -1       219 5.00000E-01 5.00000E-01 5.00000E-01
 -1       220 5.00000E-01 2.50000E-01 1.00000E+00
 -1       221 2.50000E-01 5.00000E-01 1.00000E+00
 -1       222 5.00000E-01 5.00000E-01 1.00000E+00
 -1       223 7.50000E-01 5.00000E-01 1.00000E+00
 -1       224 5.00000E-01 7.50000E-01 1.00000E+00
 -1       225 5.00000E-01 5.00000E-01 1.50000E+00
 -1       226 5.00000E-01 2.50000E-01 2.00000E+00
 -1       227 2.50000E-01 5.00000E-01 2.00000E+00
 -1       228 5.00000E-01 5.00000E-01 2.00000E+00
 -1       229 7.50000E-01 5.00000E-01 2.00000E+00
 -1       230 5.00000E-01 7.50000E-01 2.00000E+00
 -1       231 5.00000E-01 5.00000E-01 2.50000E+00
 -1       232 5.00000E-01 2.50000E-01 3.00000E+00
 -1       233 2.50000E-01 5.00000E-01 3.00000E+00
 -1       234 5.00000E-01 5.00000E-01 3.00000E+00
 -1       235 7.50000E-01 5.00000E-01 3.00000E+00
 -1       236 5.00000E-01 7.50000E-01 3.00000E+00
 -1       237 5.00000E-01 5.00000E-01 3.50000E+00
 -1       238 5.00000E-01 2.50000E-01 4.00000E+00
 -1       239 2.50000E-01 5.00000E-01 4.00000E+00
 -1       240 5.00000E-01 5.00000E-01 4.00000E+00
 -1       241 7.50000E-01 5.00000E-01 4.00000E+00
 -1       242 5.00000E-01 7.50000E-01 4.00000E+00
 -1       243 5.00000E-01 5.00000E-01 4.50000E+00
 -1       244 5.00000E-01 2.50000E-01 5.00000E+00
 -1       245 2.50000E-01 5.00000E-01 5.00000E+00
 -1       246 5.00000E-01 5.00000E-01 5.00000E+00
 -1       247 7.50000E-01 5.00000E-01 5.00000E+00
 -1       248 5.00000E-01 7.50000E-01 5.00000E+00
 -1       249 5.00000E-01 5.00000E-01 5.50000E+00
 -1       250 5.00000E-01 2.50000E-01 6.00000E+00
 -1       251 2.50000E-01 5.00000E-01 6.00000E+00
 -1       252 5.00000E-01 5.00000E-01 6.00000E+00
 -1       253 7.50000E-01 5.00000E-01 6.00000E+00
 -1       254 5.00000E-01 7.50000E-01 6.00000E+00
 -3
    3C                            24                                     1
 -1         1    4    0    1
 -2         1        10        95        19        61       105       222       192         9        93
 -2        94        20        62       103       219       190       104       220       221       193
 -1         2    4    0    1
 -2        10         2        13        95       105        34       134       222        11        12
 -2        96        93       103        33       132       219       106       133       223       220
 -1         3    4    0    1
 -2        19        95        16         4       192       222       163        79        94        97
 -2        17        18       190       219       161        78       221       224       164       191
 -1         4    4    0    1
 -2        95        13         3        16       222       134        64       163        96        14
 -2        15        97       219       132        63       161       223       135       162       224
 -1         5    4    0    1
 -2        61       105       222       192        59       109       228       196       104       220
 -2       221       193        60       107       225       194       108       226       227       197
 -1         6    4    0    1
 -2       105        34       134       222       109        36       138       228       106       133
 -2       223       220       107        35       136       225       110       137       229       226
 -1         7    4    0    1
 -2       192       222       163        79       196       228       167        81       221       224
 -2       164       191       194       225       165        80       227       230       168       195
 -1         8    4    0    1
 -2       222       134        64       163       228       138        66       167       223       135
 -2       162       224       225       136        65       165       229       139       166       230
 -1         9    4    0    1
 -2        59       109       228       196        57       113       234       200       108       226
 -2       227       197        58       111       231       198       112       232       233       201
 -1        10    4    0    1
 -2       109        36       138       228       113        38       142       234       110       137
 -2       229       226       111        37       140       231       114       141       235       232
 -1        11    4    0    1
 -2       196       228       167        81       200       234       171        83       227       230
 -2       168       195       198       231       169        82       233       236       172       199
 -1        12    4    0    1
 -2       228       138        66       167       234       142        68       171       229       139
 -2       166       230       231       140        67       169       235       143       170       236
 -1        13    4    0    1
 -2        57       113       234       200        55       117       240       204       112       232
 -2       233       201        56       115       237       202       116       238       239       205
 -1        14    4    0    1
 -2       113        38       142       234       117        40       146       240       114       141
 -2       235       232       115        39       144       237       118       145       241       238
 -1        15    4    0    1
 -2       200       234       171        83       204       240       175        85       233       236
 -2       172       199       202       237       173        84       239       242       176       203
 -1        16    4    0    1
 -2       234       142        68       171       240       146        70       175       235       143
 -2       170       236       237       144        69       173       241       147       174       242
 -1        17    4    0    1
 -2        55       117       240       204        53       121       246       208       116       238
 -2       239       205        54       119       243       206       120       244       245       209
 -1        18    4    0    1
 -2       117        40       146       240       121        42       150       246       118       145
 -2       241       238       119        41       148       243       122       149       247       244
 -1        19    4    0    1
 -2       204       240       175        85       208       246       179        87       239       242
 -2       176       203       206       243       177        86       245       248       180       207
 -1        20    4    0    1
 -2       240       146        70       175       246       150        72       179       241       147
 -2       174       242       243       148        71       177       247       151       178       248
 -1        21    4    0    1
 -2        53       121       246       208        51       125       252       212       120       244
 -2       245       209        52       123       249       210       124       250       251       213
 -1        22    4    0    1
 -2       121        42       150       246       125        44       154       252       122       149
 -2       247       244       123        43       152       249       126       153       253       250
 -1        23    4    0    1
 -2       208       246       179        87       212       252       183        89       245       248
 -2       180       207       210       249       181        88       251       254       184       211
 -1        24    4    0    1
 -2       246       150        72       179       252       154        74       183       247       151
 -2       178       248       249       152        73       181       253       155       182       254
 -3
    1PSTEP                         1           1           1          
  100CL  101 5.00000E-03         201                     1    1           1
 -4  DISP        4    1
 -5  D1          1    2    1    0
 -5  D2          1    2    2    0
 -5  D3          1    2    3    0
 -5  ALL         1    2    0    0    1ALL
 -1         1 0.00000E+00 0.00000E+00 0.00000E+00
 -1         2 0.00000E+00 0.00000E+00 0.00000E+00
 -1         3 0.00000E+00 0.00000E+00 0.00000E+00
 -1         4 0.00000E+00 0.00000E+00 0.00000E+00
 -1         9 0.00000E+00 0.00000E+00 0.00000E+00
 -1        10 0.00000E+00 0.00000E+00 0.00000E+00
 -1        11 0.00000E+00 0.00000E+00 0.00000E+00
 -1        12 0.00000E+00 0.00000E+00 0.00000E+00
 -1        13 0.00000E+00 0.00000E+00 0.00000E+00
 -1        14 0.00000E+00 0.00000E+00 0.00000E+00
 -1        15 0.00000E+00 0.00000E+00 0.00000E+00
 -1        16 0.00000E+00 0.00000E+00 0.00000E+00
 -1        17 0.00000E+00 0.00000E+00 0.00000E+00
 -1        18 0.00000E+00 0.00000E+00 0.00000E+00
 -1        19 0.00000E+00 0.00000E+00 0.00000E+00
 -1        20 0.00000E+00 0.00000E+00 0.00000E+00
 -1        33 9.21883E-05-1.48581E-04-1.84701E-04
 -1        34 3.87325E-05-4.59666E-04-3.62535E-04
 -1        35 3.58470E-05-9.46206E-04-4.74422E-04
 -1        36 1.30786E-05-1.49762E-03-5.40235E-04
 -1        37-9.27817E-06-2.08351E-03-5.42549E-04
 -1        38-3.69673E-05-2.66427E-03-5.08494E-04
 -1        39-4.58765E-05-3.15243E-03-3.73818E-04
 -1        40-2.72826E-05-3.48752E-03-2.26230E-04
 -1        41-1.15476E-04-3.57290E-03-7.58515E-05
 -1        42-2.39048E-04-3.72885E-03-1.03639E-04
 -1        43 3.23034E-04-3.23233E-03 2.01701E-04
 -1        44 6.80197E-04-2.79632E-03 4.78465E-04
 -1        51-6.80082E-04-2.79628E-03 4.78376E-04
 -1        52-3.22859E-04-3.23235E-03 2.01630E-04
 -1        53 2.39285E-04-3.72885E-03-1.03665E-04
 -1        54 1.15710E-04-3.57291E-03-7.58590E-05
 -1        55 2.75212E-05-3.48752E-03-2.26220E-04
 -1        56 4.60891E-05-3.15244E-03-3.73797E-04
 -1        57 3.71533E-05-2.66427E-03-5.08463E-04
 -1        58 9.42402E-06-2.08351E-03-5.42514E-04
 -1        59-1.29720E-05-1.49762E-03-5.40198E-04
 -1        60-3.57799E-05-9.46204E-04-4.74389E-04
 -1        61-3.86993E-05-4.59663E-04-3.62510E-04
 -1        62-9.21776E-05-1.48575E-04-1.84688E-04
 -1        63-9.01172E-05-1.45786E-04 1.80530E-04
 -1        64-3.83158E-05-4.58609E-04 3.53675E-04
 -1        65-3.21681E-05-9.45138E-04 4.61155E-04
 -1        66-1.16271E-05-1.50478E-03 5.23620E-04
 -1        67 8.83169E-06-2.07110E-03 5.20312E-04
 -1        68 2.82936E-05-2.66196E-03 4.79200E-04
 -1        69 6.72190E-05-3.16664E-03 3.39479E-04
 -1        70 5.78017E-05-3.59107E-03 1.93679E-04
 -1        71 4.60334E-05-3.42179E-03 3.25197E-05
 -1        72 2.04850E-05-3.39963E-03 2.67801E-05
 -1        73 3.68297E-05-3.76015E-03-2.99552E-04
 -1        74-2.48850E-04-3.95990E-03-5.36278E-04
 -1        78 9.01279E-05-1.45792E-04 1.80543E-04
 -1        79 3.83489E-05-4.58612E-04 3.53700E-04
 -1        80 3.22351E-05-9.45140E-04 4.61188E-04
 -1        81 1.17335E-05-1.50478E-03 5.23656E-04
 -1        82-8.68599E-06-2.07110E-03 5.20347E-04
 -1        83-2.81078E-05-2.66195E-03 4.79231E-04
 -1        84-6.70065E-05-3.16663E-03 3.39500E-04
 -1        85-5.75635E-05-3.59107E-03 1.93689E-04
 -1        86-4.58005E-05-3.42178E-03 3.25122E-05
 -1        87-2.02490E-05-3.39963E-03 2.67538E-05
 -1        88-3.66546E-05-3.76013E-03-2.99623E-04
 -1        89 2.48965E-04-3.95993E-03-5.36367E-04
 -1        93 0.00000E+00 0.00000E+00 0.00000E+00
 -1        94 0.00000E+00 0.00000E+00 0.00000E+00
 -1        95 0.00000E+00 0.00000E+00 0.00000E+00
 -1        96 0.00000E+00 0.00000E+00 0.00000E+00
 -1        97 0.00000E+00 0.00000E+00 0.00000E+00
 -1       103 3.67817E-09-1.86019E-04-1.81311E-04
 -1       104-1.96995E-05-4.86207E-04-3.71112E-04
 -1       105 1.61065E-08-4.90596E-04-3.74023E-04
 -1       106 1.97315E-05-4.86208E-04-3.71124E-04
 -1       107 3.29352E-08-9.59381E-04-4.78328E-04
 -1       108-4.43725E-06-1.50568E-03-5.43843E-04
 -1       109 5.26870E-08-1.52014E-03-5.42899E-04
 -1       110 4.54317E-06-1.50568E-03-5.43860E-04
 -1       111 7.37723E-08-2.06521E-03-5.44268E-04
 -1       112 1.14044E-05-2.68306E-03-5.20852E-04
 -1       113 9.16839E-08-2.68065E-03-5.28074E-04
 -1       114-1.12192E-05-2.68306E-03-5.20867E-04
 -1       115 1.08769E-07-3.11746E-03-3.87378E-04
 -1       116 4.07872E-05-3.50044E-03-2.05121E-04
 -1       117 1.15571E-07-3.63044E-03-1.73110E-04
 -1       118-4.05522E-05-3.50044E-03-2.05126E-04
 -1       119 1.22923E-07-3.44535E-03-4.32392E-05
 -1       120 3.55077E-05-3.76657E-03-1.12557E-04
 -1       121 1.08764E-07-3.65937E-03-1.61367E-04
 -1       122-3.52773E-05-3.76658E-03-1.12539E-04
 -1       123 9.55011E-08-3.51306E-03-8.28490E-05
 -1       124-6.69060E-05-3.14512E-03 4.45302E-04
 -1       125 3.74172E-08-3.87241E-03 4.73216E-04
 -1       126 6.69970E-05-3.14513E-03 4.45327E-04
 -1       132 1.14941E-06-9.94123E-05-1.86509E-06
 -1       133 2.04856E-05-4.43304E-04-1.73161E-04
 -1       134 1.25685E-06-4.48583E-04-3.77390E-06
 -1       135-1.91257E-05-4.43108E-04 1.64598E-04
 -1       136 2.33607E-07-9.22308E-04-6.92231E-06
 -1       137 4.95868E-06-1.49548E-03-2.66646E-04
 -1       138 1.07780E-06-1.49141E-03-9.53927E-06
 -1       139-3.21735E-06-1.49770E-03 2.49945E-04
 -1       140 2.09340E-06-2.09291E-03-1.12735E-05
 -1       141-7.26074E-06-2.65202E-03-2.43386E-04
 -1       142 5.91777E-06-2.64607E-03-7.56891E-06
 -1       143 9.83383E-06-2.65609E-03 2.17655E-04
 -1       144-8.59299E-06-3.20739E-03-1.67554E-05
 -1       145-5.62817E-05-3.51456E-03-1.32958E-04
 -1       146-9.49077E-06-3.46624E-03-3.10628E-05
 -1       147 5.20601E-05-3.54745E-03 9.48388E-05
 -1       148 2.38600E-05-3.58362E-03-2.71267E-05
 -1       149 7.32057E-05-3.39452E-03-4.87807E-05
 -1       150 8.41201E-05-3.24815E-03-1.40335E-05
 -1       151-6.17704E-05-3.28688E-03-2.05581E-05
 -1       152-1.26770E-04-3.83958E-03 1.43628E-05
 -1       153-3.54689E-04-3.23809E-03 1.79550E-04
 -1       154-8.32517E-05-2.91142E-03-3.12937E-05
 -1       155 3.04520E-04-3.63109E-03-2.39586E-04
 -1       161 3.66045E-09-1.83911E-04 1.76964E-04
 -1       162-1.93486E-05-4.84993E-04 3.62745E-04
 -1       163 1.60785E-08-4.87103E-04 3.64804E-04
 -1       164 1.93805E-05-4.84995E-04 3.62756E-04
 -1       165 3.28833E-08-9.59080E-04 4.66045E-04
 -1       166-4.45826E-06-1.50178E-03 5.25688E-04
 -1       167 5.26357E-08-1.51458E-03 5.27518E-04
 -1       168 4.56405E-06-1.50178E-03 5.25706E-04
 -1       169 7.36831E-08-2.06582E-03 5.19112E-04
 -1       170 1.00178E-05-2.68252E-03 4.94943E-04
 -1       171 9.16178E-08-2.64450E-03 4.92424E-04
 -1       172-9.83275E-06-2.68252E-03 4.94958E-04
 -1       173 1.08637E-07-3.14062E-03 3.61391E-04
 -1       174 4.30770E-05-3.43892E-03 1.61383E-04
 -1       175 1.15508E-07-3.55702E-03 1.54212E-04
 -1       176-4.28422E-05-3.43892E-03 1.61388E-04
 -1       177 1.22732E-07-3.39378E-03-1.94929E-05
 -1       178-3.87976E-05-3.88347E-03 7.21986E-05
 -1       179 1.08774E-07-3.46064E-03 8.92264E-05
 -1       180 3.90276E-05-3.88348E-03 7.21810E-05
 -1       181 9.52204E-08-3.72271E-03-2.85112E-05
 -1       182 2.92904E-05-2.66442E-03-4.96765E-04
 -1       183 3.77835E-08-4.74641E-03-5.02688E-04
 -1       184-2.91993E-05-2.66443E-03-4.96790E-04
 -1       190-1.13608E-06-9.94124E-05-1.85244E-06
 -1       191 1.91606E-05-4.43110E-04 1.64624E-04
 -1       192-1.22159E-06-4.48583E-04-3.74784E-06
 -1       193-2.04507E-05-4.43303E-04-1.73136E-04
 -1       194-1.65737E-07-9.22308E-04-6.88952E-06
 -1       195 3.32440E-06-1.49770E-03 2.49982E-04
 -1       196-9.70176E-07-1.49141E-03-9.50197E-06
 -1       197-4.85155E-06-1.49548E-03-2.66608E-04
 -1       198-1.94876E-06-2.09291E-03-1.12381E-05
 -1       199-9.64845E-06-2.65609E-03 2.17687E-04
 -1       200-5.73185E-06-2.64607E-03-7.53677E-06
 -1       201 7.44624E-06-2.65202E-03-2.43354E-04
 -1       202 8.80250E-06-3.20739E-03-1.67355E-05
 -1       203-5.18214E-05-3.54745E-03 9.48497E-05
 -1       204 9.73057E-06-3.46624E-03-3.10524E-05
 -1       205 5.65206E-05-3.51456E-03-1.32947E-04
 -1       206-2.36347E-05-3.58362E-03-2.71334E-05
 -1       207 6.20060E-05-3.28688E-03-2.05812E-05
 -1       208-8.38796E-05-3.24815E-03-1.40481E-05
 -1       209-7.29698E-05-3.39452E-03-4.88038E-05
 -1       210 1.26939E-04-3.83958E-03 1.42823E-05
 -1       211-3.04378E-04-3.63110E-03-2.39669E-04
 -1       212 8.34130E-05-2.91143E-03-3.13940E-05
 -1       213 3.54832E-04-3.23808E-03 1.79467E-04
 -1       219 4.97299E-09-1.36572E-04-1.65517E-06
 -1       220 1.68015E-08-4.69823E-04-1.80427E-04
 -1       221-5.86019E-07-4.70647E-04-4.55431E-06
 -1       222 1.67938E-08-4.71377E-04-4.69651E-06
 -1       223 6.19705E-07-4.70647E-04-4.56676E-06
 -1       224 1.67872E-08-4.67913E-04 1.71643E-04
 -1       225 3.35403E-08-9.38976E-04-6.53346E-06
 -1       226 5.25572E-08-1.50650E-03-2.73301E-04
 -1       227-4.95990E-07-1.48977E-03-8.65960E-06
 -1       228 5.24149E-08-1.49153E-03-1.01200E-05
 -1       229 6.02111E-07-1.48977E-03-8.67769E-06
 -1       230 5.25318E-08-1.50406E-03 2.53884E-04
 -1       231 7.37267E-08-2.09572E-03-9.75943E-06
 -1       232 9.07210E-08-2.65599E-03-2.50470E-04
 -1       233-2.61781E-06-2.64578E-03-1.57245E-05
 -1       234 9.01271E-08-2.63459E-03-1.69828E-05
 -1       235 2.80163E-06-2.64578E-03-1.57397E-05
 -1       236 9.06860E-08-2.63695E-03 2.21177E-04
 -1       237 1.08031E-07-3.16625E-03-1.30126E-05
 -1       238 1.13522E-07-3.57452E-03-1.29875E-04
 -1       239 6.09545E-06-3.41226E-03-1.84893E-05
 -1       240 1.12168E-07-3.45147E-03-2.34086E-05
 -1       241-5.86394E-06-3.41226E-03-1.84958E-05
 -1       242 1.13499E-07-3.53778E-03 8.41521E-05
 -1       243 1.22836E-07-3.58326E-03-2.67487E-05
 -1       244 1.05189E-07-3.46175E-03-2.26637E-05
 -1       245-4.24127E-05-3.53103E-03-3.72483E-05
 -1       246 1.02929E-07-3.47815E-03-2.78866E-05
 -1       247 4.26411E-05-3.53103E-03-3.72301E-05
 -1       248 1.05165E-07-3.38169E-03-1.17778E-05
 -1       249 9.40858E-08-3.57107E-03-2.15657E-05
 -1       250 3.44819E-08-4.09453E-03 1.60378E-04
 -1       251 5.41219E-05-2.50968E-03-2.26265E-05
 -1       252 3.25285E-08-3.45674E-03-2.05359E-05
 -1       253-5.40172E-05-2.50968E-03-2.26225E-05
 -1       254 3.48002E-08-4.42679E-03-2.47500E-04
 -3
    1PSTEP                         2           2           1          
  100CL  102 1.00000E-02         201                     1    2           1
 -4  DISP        4    1
 -5  D1          1    2    1    0
 -5  D2          1    2    2    0
 -5  D3          1    2    3    0
 -5  ALL         1    2    0    0    1ALL
 -1         1 0.00000E+00 0.00000E+00 0.00000E+00
 -1         2 0.00000E+00 0.00000E+00 0.00000E+00
 -1         3 0.00000E+00 0.00000E+00 0.00000E+00
 -1         4 0.00000E+00 0.00000E+00 0.00000E+00
 -1         9 0.00000E+00 0.00000E+00 0.00000E+00
 -1        10 0.00000E+00 0.00000E+00 0.00000E+00
 -1        11 0.00000E+00 0.00000E+00 0.00000E+00
 -1        12 0.00000E+00 0.00000E+00 0.00000E+00
 -1        13 0.00000E+00 0.00000E+00 0.00000E+00
 -1        14 0.00000E+00 0.00000E+00 0.00000E+00
 -1        15 0.00000E+00 0.00000E+00 0.00000E+00
 -1        16 0.00000E+00 0.00000E+00 0.00000E+00
 -1        17 0.00000E+00 0.00000E+00 0.00000E+00
 -1        18 0.00000E+00 0.00000E+00 0.00000E+00
 -1        19 0.00000E+00 0.00000E+00 0.00000E+00
 -1        20 0.00000E+00 0.00000E+00 0.00000E+00
 -1        33-4.66503E-05 7.63951E-05 9.40141E-05
 -1        34-1.91952E-05 2.35467E-04 1.83055E-04
 -1        35-1.77935E-05 4.85679E-04 2.39930E-04
 -1        36-6.21257E-06 7.65604E-04 2.71387E-04
 -1        37 5.90838E-06 1.06939E-03 2.71353E-04
 -1        38 2.16437E-05 1.36304E-03 2.45860E-04
 -1        39 2.43942E-05 1.60821E-03 1.80765E-04
 -1        40 1.21255E-05 1.77311E-03 9.91400E-05
 -1        41 5.92941E-05 1.82962E-03 2.64801E-05
 -1        42 1.14346E-04 1.85456E-03-2.31402E-05
 -1        43-1.26876E-04 1.63987E-03-1.43899E-04
 -1        44-4.33191E-04 1.35018E-03-2.52944E-04
 -1        51 4.33198E-04 1.35020E-03-2.52984E-04
 -1        52 1.26875E-04 1.63988E-03-1.43932E-04
 -1        53-1.14367E-04 1.85463E-03-2.31455E-05
 -1        54-5.93041E-05 1.82965E-03 2.64834E-05
 -1        55-1.21267E-05 1.77315E-03 9.91497E-05
 -1        56-2.43974E-05 1.60823E-03 1.80766E-04
 -1        57-2.16474E-05 1.36307E-03 2.45863E-04
 -1        58-5.91293E-06 1.06940E-03 2.71357E-04
 -1        59 6.20850E-06 7.65621E-04 2.71392E-04
 -1        60 1.77888E-05 4.85689E-04 2.39933E-04
 -1        61 1.91913E-05 2.35475E-04 1.83058E-04
 -1        62 4.66480E-05 7.63989E-05 9.40150E-05
 -1        63 4.66501E-05 7.63692E-05-9.39907E-05
 -1        64 1.92145E-05 2.35441E-04-1.83006E-04
 -1        65 1.77363E-05 4.85714E-04-2.39854E-04
 -1        66 6.12841E-06 7.65717E-04-2.71288E-04
 -1        67-5.71741E-06 1.06915E-03-2.71224E-04
 -1        68-2.11815E-05 1.36264E-03-2.45697E-04
 -1        69-2.51966E-05 1.60898E-03-1.80572E-04
 -1        70-1.36950E-05 1.77499E-03-9.89254E-05
 -1        71-5.61558E-05 1.82619E-03-2.62043E-05
 -1        72-1.05899E-04 1.84581E-03 2.35281E-05
 -1        73 1.13129E-04 1.65418E-03 1.44332E-04
 -1        74 4.09564E-04 1.37649E-03 2.53293E-04
 -1        78-4.66456E-05 7.63716E-05-9.39890E-05