    1C
    1UUSER                                                              
    1UDATE              18.july.2018                                    
    1UTIME              00:45:39                                        
    1UHOST                                                              
    1UPGM               CalculiX                                        
    1UVERSION           Version 2.13                             
    1UCOMPILETIME       jue jun 14 00:40:39 CEST 2018                    
    1UDIR                                                               
    1UDBN                                                               
    1UMAT    1EL                                                        
    2C                            81                                     1
 -1         5 0.00000E+00 0.00000E+00 8.00000E+00
 -1         6 1.00000E+00 0.00000E+00 8.00000E+00
 -1         7 1.00000E+00 1.00000E+00 8.00000E+00
 -1         8 0.00000E+00 1.00000E+00 8.00000E+00
 -1        21 2.50000E-01 0.00000E+00 8.00000E+00
 -1        22 5.00000E-01 0.00000E+00 8.00000E+00
 -1        23 7.50000E-01 0.00000E+00 8.00000E+00
 -1        24 1.00000E+00 2.50000E-01 8.00000E+00
 -1        25 1.00000E+00 5.00000E-01 8.00000E+00
 -1        26 1.00000E+00 7.50000E-01 8.00000E+00
 -1        27 7.50000E-01 1.00000E+00 8.00000E+00
 -1        28 5.00000E-01 1.00000E+00 8.00000E+00
 -1        29 2.50000E-01 1.00000E+00 8.00000E+00
 -1        30 0.00000E+00 7.50000E-01 8.00000E+00
 -1        31 0.00000E+00 5.00000E-01 8.00000E+00
 -1        32 0.00000E+00 2.50000E-01 8.00000E+00
 -1        44 1.00000E+00 0.00000E+00 6.00000E+00
 -1        45 1.00000E+00 0.00000E+00 6.50000E+00
 -1        46 1.00000E+00 0.00000E+00 7.00000E+00
 -1        47 1.00000E+00 0.00000E+00 7.50000E+00
 -1        48 0.00000E+00 0.00000E+00 7.50000E+00
 -1        49 0.00000E+00 0.00000E+00 7.00000E+00
 -1        50 0.00000E+00 0.00000E+00 6.50000E+00
 -1        51 0.00000E+00 0.00000E+00 6.00000E+00
 -1        74 1.00000E+00 1.00000E+00 6.00000E+00
 -1        75 1.00000E+00 1.00000E+00 6.50000E+00
 -1        76 1.00000E+00 1.00000E+00 7.00000E+00
 -1        77 1.00000E+00 1.00000E+00 7.50000E+00
 -1        89 0.00000E+00 1.00000E+00 6.00000E+00
 -1        90 0.00000E+00 1.00000E+00 6.50000E+00
 -1        91 0.00000E+00 1.00000E+00 7.00000E+00
 -1        92 0.00000E+00 1.00000E+00 7.50000E+00
 -1        98 5.00000E-01 2.50000E-01 8.00000E+00
 -1        99 2.50000E-01 5.00000E-01 8.00000E+00
 -1       100 5.00000E-01 5.00000E-01 8.00000E+00
 -1       101 7.50000E-01 5.00000E-01 8.00000E+00
 -1       102 5.00000E-01 7.50000E-01 8.00000E+00
 -1       124 2.50000E-01 0.00000E+00 6.00000E+00
 -1       125 5.00000E-01 0.00000E+00 6.00000E+00
 -1       126 7.50000E-01 0.00000E+00 6.00000E+00
 -1       127 5.00000E-01 0.00000E+00 6.50000E+00
 -1       128 2.50000E-01 0.00000E+00 7.00000E+00
 -1       129 5.00000E-01 0.00000E+00 7.00000E+00
 -1       130 7.50000E-01 0.00000E+00 7.00000E+00
 -1       131 5.00000E-01 0.00000E+00 7.50000E+00
 -1       153 1.00000E+00 2.50000E-01 6.00000E+00
 -1       154 1.00000E+00 5.00000E-01 6.00000E+00
 -1       155 1.00000E+00 7.50000E-01 6.00000E+00
 -1       156 1.00000E+00 5.00000E-01 6.50000E+00
 -1       157 1.00000E+00 2.50000E-01 7.00000E+00
 -1       158 1.00000E+00 5.00000E-01 7.00000E+00
 -1       159 1.00000E+00 7.50000E-01 7.00000E+00
 -1       160 1.00000E+00 5.00000E-01 7.50000E+00
 -1       182 7.50000E-01 1.00000E+00 6.00000E+00
 -1       183 5.00000E-01 1.00000E+00 6.00000E+00
 -1       184 2.50000E-01 1.00000E+00 6.00000E+00
 -1       185 5.00000E-01 1.00000E+00 6.50000E+00
 -1       186 7.50000E-01 1.00000E+00 7.00000E+00
 -1       187 5.00000E-01 1.00000E+00 7.00000E+00
 -1       188 2.50000E-01 1.00000E+00 7.00000E+00
 -1       189 5.00000E-01 1.00000E+00 7.50000E+00
 -1       211 0.00000E+00 7.50000E-01 6.00000E+00
 -1       212 0.00000E+00 5.00000E-01 6.00000E+00
 -1       213 0.00000E+00 2.50000E-01 6.00000E+00
 -1       214 0.00000E+00 5.00000E-01 6.50000E+00
 -1       215 0.00000E+00 7.50000E-01 7.00000E+00
 -1       216 0.00000E+00 5.00000E-01 7.00000E+00
 -1       217 0.00000E+00 2.50000E-01 7.00000E+00
 -1       218 0.00000E+00 5.00000E-01 7.50000E+00
 -1       250 5.00000E-01 2.50000E-01 6.00000E+00
 -1       251 2.50000E-01 5.00000E-01 6.00000E+00
 -1       252 5.00000E-01 5.00000E-01 6.00000E+00
 -1       253 7.50000E-01 5.00000E-01 6.00000E+00
 -1       254 5.00000E-01 7.50000E-01 6.00000E+00
 -1       255 5.00000E-01 5.00000E-01 6.50000E+00
 -1       256 5.00000E-01 2.50000E-01 7.00000E+00
 -1       257 2.50000E-01 5.00000E-01 7.00000E+00
 -1       258 5.00000E-01 5.00000E-01 7.00000E+00
 -1       259 7.50000E-01 5.00000E-01 7.00000E+00
 -1       260 5.00000E-01 7.50000E-01 7.00000E+00
 -1       261 5.00000E-01 5.00000E-01 7.50000E+00
 -3
    3C                             8                                     1
 -1        25    4    0    1
 -2        51       125       252       212        49       129       258       216       124       250
 -2       251       213        50       127       255       214       128       256       257       217
 -1        26    4    0    1
 -2       125        44       154       252       129        46       158       258       126       153
 -2       253       250       127        45       156       255       130       157       259       256
 -1        27    4    0    1
 -2       212       252       183        89       216       258       187        91       251       254
 -2       184       211       214       255       185        90       257       260       188       215
 -1        28    4    0    1
 -2       252       154        74       183       258       158        76       187       253       155
 -2       182       254       255       156        75       185       259       159       186       260
 -1        29    4    0    1
 -2        49       129       258       216         5        22       100        31       128       256
 -2       257       217        48       131       261       218        21        98        99        32
 -1        30    4    0    1
 -2       129        46       158       258        22         6        25       100       130       157
 -2       259       256       131        47       160       261        23        24       101        98
 -1        31    4    0    1
 -2       216       258       187        91        31       100        28         8       257       260
 -2       188       215       218       261       189        92        99       102        29        30
 -1        32    4    0    1
 -2       258       158        76       187       100        25         7        28       259       159
 -2       186       260       261       160        77       189       101        26        27       102
 -3
    1PSTEP                         1           1           1          
  100CL  101 5.00000E-03          81                     1    1           1
 -4  DISP        4    1
 -5  D1          1    2    1    0
 -5  D2          1    2    2    0
 -5  D3          1    2    3    0
 -5  ALL         1    2    0    0    1ALL
 -1         5 0.00000E+00 0.00000E+00 0.00000E+00
 -1         6 0.00000E+00 0.00000E+00 0.00000E+00
 -1         7 0.00000E+00 0.00000E+00 0.00000E+00
 -1         8 0.00000E+00 0.00000E+00 0.00000E+00
 -1        21 0.00000E+00 0.00000E+00 0.00000E+00
 -1        22 0.00000E+00 0.00000E+00 0.00000E+00
 -1        23 0.00000E+00 0.00000E+00 0.00000E+00
 -1        24 0.00000E+00 0.00000E+00 0.00000E+00
 -1        25 0.00000E+00 0.00000E+00 0.00000E+00
 -1        26 0.00000E+00 0.00000E+00 0.00000E+00
 -1        27 0.00000E+00 0.00000E+00 0.00000E+00
 -1        28 0.00000E+00 0.00000E+00 0.00000E+00
 -1        29 0.00000E+00 0.00000E+00 0.00000E+00
 -1        30 0.00000E+00 0.00000E+00 0.00000E+00
 -1        31 0.00000E+00 0.00000E+00 0.00000E+00
 -1        32 0.00000E+00 0.00000E+00 0.00000E+00
 -1        44 6.80890E-04-2.79601E-03 4.78600E-04
 -1        45 3.29053E-04-2.30009E-03 6.58681E-04
 -1        46-2.20328E-04-1.76290E-03 8.53994E-04
 -1        47 1.24794E-04-7.03508E-04 4.60768E-04
 -1        48-1.24784E-04-7.03492E-04 4.60748E-04
 -1        49 2.20394E-04-1.76287E-03 8.53935E-04
 -1        50-3.28931E-04-2.30008E-03 6.58573E-04
 -1        51-6.80569E-04-2.79595E-03 4.78382E-04
 -1        74-2.49243E-04-3.95993E-03-5.36293E-04
 -1        75 2.00545E-05-2.83164E-03-6.71016E-04
 -1        76 2.44426E-05-1.50774E-03-8.65864E-04
 -1        77-2.24254E-04-5.27233E-04-4.69974E-04
 -1        89 2.49565E-04-3.96000E-03-5.36511E-04
 -1        90-1.99319E-05-2.83164E-03-6.71125E-04
 -1        91-2.43773E-05-1.50776E-03-8.65923E-04
 -1        92 2.24264E-04-5.27248E-04-4.69995E-04
 -1        98 0.00000E+00 0.00000E+00 0.00000E+00
 -1        99 0.00000E+00 0.00000E+00 0.00000E+00
 -1       100 0.00000E+00 0.00000E+00 0.00000E+00
 -1       101 0.00000E+00 0.00000E+00 0.00000E+00
 -1       102 0.00000E+00 0.00000E+00 0.00000E+00
 -1       124-6.68804E-05-3.14538E-03 4.45408E-04
 -1       125 1.18790E-07-3.87307E-03 4.73295E-04
 -1       126 6.71493E-05-3.14540E-03 4.45479E-04
 -1       127 7.36828E-08-2.57400E-03 9.44758E-04
 -1       128 3.56073E-05-1.80096E-03 9.13164E-04
 -1       129 1.76036E-08-1.69903E-03 9.45539E-04
 -1       130-3.55578E-05-1.80097E-03 9.13203E-04
 -1       131 1.75323E-09-6.85642E-04 4.66513E-04
 -1       153-3.54926E-04-3.23827E-03 1.79632E-04
 -1       154-8.33058E-05-2.91222E-03-3.12483E-05
 -1       155 3.05088E-04-3.63122E-03-2.39647E-04
 -1       156-1.20566E-04-2.88744E-03-7.95996E-05
 -1       157 7.71848E-05-1.46308E-03 3.71077E-04
 -1       158 8.89386E-05-1.37430E-03-2.88485E-05
 -1       159-3.14817E-05-1.39415E-03-3.90329E-04
 -1       160 3.87775E-05-5.33993E-04 1.36150E-06
 -1       182 2.92174E-05-2.66447E-03-4.96889E-04
 -1       183 1.18732E-07-4.74724E-03-5.02756E-04
 -1       184-2.89486E-05-2.66450E-03-4.96961E-04
 -1       185 7.36446E-08-2.85419E-03-9.17223E-04
 -1       186-2.29270E-05-2.02783E-03-9.64026E-04
 -1       187 1.76131E-08-1.70220E-03-9.81094E-04
 -1       188 2.29764E-05-2.02784E-03-9.64065E-04
 -1       189 1.74726E-09-6.58728E-04-4.68079E-04
 -1       211-3.04738E-04-3.63125E-03-2.39836E-04
 -1       212 8.36682E-05-2.91222E-03-3.14483E-05
 -1       213 3.55277E-04-3.23824E-03 1.79443E-04
 -1       214 1.20688E-04-2.88744E-03-7.97095E-05
 -1       215 3.15547E-05-1.39416E-03-3.90395E-04
 -1       216-8.88598E-05-1.37430E-03-2.89101E-05
 -1       217-7.71117E-05-1.46307E-03 3.71011E-04
 -1       218-3.87611E-05-5.33993E-04 1.34743E-06
 -1       250 1.19625E-07-4.09510E-03 1.60412E-04
 -1       251 5.42086E-05-2.50992E-03-2.26913E-05
 -1       252 1.19464E-07-3.45713E-03-2.05646E-05
 -1       253-5.39200E-05-2.50992E-03-2.26527E-05
 -1       254 1.19680E-07-4.42754E-03-2.47485E-04
 -1       255 8.13376E-08-2.63108E-03-3.50421E-05
 -1       256 1.81185E-08-1.53703E-03 3.88056E-04
 -1       257-5.08152E-05-1.67560E-03-9.75149E-06
 -1       258 1.67273E-08-1.62498E-03-1.71691E-05
 -1       259 5.08703E-05-1.67560E-03-9.70675E-06
 -1       260 1.81052E-08-1.55872E-03-4.24080E-04
 -1       261 6.49087E-09-6.58428E-04-3.56789E-06
 -3
    1PSTEP                         2           2           1          
  100CL  102 1.00000E-02          81                     1    2           1
 -4  DISP        4    1
 -5  D1          1    2    1    0
 -5  D2          1    2    2    0
 -5  D3          1    2    3    0
 -5  ALL         1    2    0    0    1ALL
 -1         5 0.00000E+00 0.00000E+00 0.00000E+00
 -1         6 0.00000E+00 0.00000E+00 0.00000E+00
 -1         7 0.00000E+00 0.00000E+00 0.00000E+00
 -1         8 0.00000E+00 0.00000E+00 0.00000E+00
 -1        21 0.00000E+00 0.00000E+00 0.00000E+00
 -1        22 0.00000E+00 0.00000E+00 0.00000E+00
 -1        23 0.00000E+00 0.00000E+00 0.00000E+00
 -1        24 0.00000E+00 0.00000E+00 0.00000E+00
 -1        25 0.00000E+00 0.00000E+00 0.00000E+00
 -1        26 0.00000E+00 0.00000E+00 0.00000E+00
 -1        27 0.00000E+00 0.00000E+00 0.00000E+00
 -1        28 0.00000E+00 0.00000E+00 0.00000E+00
 -1        29 0.00000E+00 0.00000E+00 0.00000E+00
 -1        30 0.00000E+00 0.00000E+00 0.00000E+00
 -1        31 0.00000E+00 0.00000E+00 0.00000E+00
 -1        32 0.00000E+00 0.00000E+00 0.00000E+00
 -1        44-4.28438E-04 1.35406E-03-2.53068E-04
 -1        45-1.26666E-04 1.17735E-03-3.17627E-04
 -1        46 1.08366E-04 8.77367E-04-3.83601E-04
 -1        47-6.66400E-05 3.79131E-04-2.50482E-04
 -1        48 6.66518E-05 3.79119E-04-2.50476E-04
 -1        49-1.08328E-04 8.77352E-04-3.83607E-04
 -1        50 1.26710E-04 1.17730E-03-3.17630E-04
 -1        51 4.28441E-04 1.35410E-03-2.53077E-04
 -1        74 4.13930E-04 1.37251E-03 2.53135E-04
 -1        75 1.17978E-04 1.18709E-03 3.17676E-04
 -1        76-1.02340E-04 8.70974E-04 3.83699E-04
 -1        77 6.91973E-05 3.76159E-04 2.50537E-04
 -1        89-4.13924E-04 1.37251E-03 2.53131E-04
 -1        90-1.18014E-04 1.18703E-03 3.17653E-04
 -1        91 1.02331E-04 8.70964E-04 3.83701E-04
 -1        92-6.92022E-05 3.76148E-04 2.50534E-04
 -1        98 0.00000E+00 0.00000E+00 0.00000E+00
 -1        99 0.00000E+00 0.00000E+00 0.00000E+00
 -1       100 0.00000E+00 0.00000E+00 0.00000E+00
 -1       101 0.00000E+00 0.00000E+00 0.00000E+00
 -1       102 0.00000E+00 0.00000E+00 0.00000E+00
 -1       124 2.70840E-05 1.52896E-03-2.34629E-04
 -1       125-4.86851E-10 1.90902E-03-2.44982E-04
 -1       126-2.70776E-05 1.52895E-03-2.34597E-04
 -1       127 1.74872E-08 1.32640E-03-4.44286E-04
 -1       128-6.50872E-06 8.88139E-04-4.45285E-04
 -1       129 1.64255E-08 8.24981E-04-4.72260E-04
 -1       130 6.54327E-06 8.88144E-04-4.45292E-04
 -1       131 8.21009E-09 3.60138E-04-2.34780E-04
 -1       153 3.03310E-04 1.80006E-03-1.04870E-04
 -1       154-1.98684E-06 1.90572E-03 2.13775E-07
 -1       155-2.98954E-04 1.79798E-03 1.05052E-04
 -1       156 9.32017E-07 1.45331E-03 1.05224E-06
 -1       157-6.37935E-05 7.61318E-04-1.72815E-04
 -1       158-7.68653E-07 7.34122E-04 3.10745E-07
 -1       159 6.25860E-05 7.60955E-04 1.72758E-04
 -1       160-1.47784E-07 2.52424E-04 1.31598E-07
 -1       182 3.08432E-05 1.52222E-03 2.34974E-04
 -1       183-2.50464E-09 1.91872E-03 2.45109E-04
 -1       184-3.08433E-05 1.52223E-03 2.35013E-04
 -1       185-6.99472E-09 1.32737E-03 4.42798E-04
 -1       186-6.28205E-06 8.90308E-04 4.45704E-04
 -1       187-1.02151E-08 8.25505E-04 4.72119E-04
 -1       188 6.26662E-06 8.90302E-04 4.45693E-04
 -1       189-3.30939E-09 3.59846E-04 2.34538E-04
 -1       211 2.98953E-04 1.79794E-03 1.05034E-04
 -1       212 1.93695E-06 1.90566E-03 2.31364E-07
 -1       213-3.03341E-04 1.80005E-03-1.04807E-04
 -1       214-9.02806E-07 1.45330E-03 1.05612E-06
 -1       215-6.25977E-05 7.60932E-04 1.72766E-04
 -1       216 7.60884E-07 7.34080E-04 3.09306E-07
 -1       217 6.38094E-05 7.61287E-04-1.72833E-04
 -1       218 1.53972E-07 2.52414E-04 1.22388E-07
 -1       250 1.24015E-08 1.92476E-03-9.96437E-05
 -1       251 4.24412E-06 1.19138E-03 4.94016E-08
 -1       252 2.57315E-08 1.72917E-03 1.16703E-07
 -1       253-4.23691E-06 1.19143E-03 8.33925E-08
 -1       254 9.38742E-09 1.93567E-03 1.00152E-04
 -1       255-1.23949E-09 1.37385E-03 1.92724E-07
 -1       256 1.40231E-08 7.58647E-04-2.08637E-04
 -1       257-3.49739E-07 9.02639E-04-2.38776E-08
 -1       258 1.16969E-08 7.59566E-04 7.82763E-08
 -1       259 3.57163E-07 9.02658E-04-3.31200E-08
 -1       260 1.33237E-09 7.57491E-04 2.08981E-04
 -1       261-2.61852E-10 3.27071E-04 1.34252E-08
 -3
    1PSTEP                         3           3           1          
  100CL  103 1.50000E-02          81                     1    3           1
 -4  DISP        4    1
 -5  D1          1    2    1    0
 -5  D2          1    2    2    0
 -5  D3          1    2    3    0
 -5  ALL         1    2    0    0    1ALL
 -1         5 0.00000E+00 0.00000E+00 0.00000E+00
 -1         6 0.00000E+00 0.00000E+00 0.00000E+00
 -1         7 0.00000E+00 0.00000E+00 0.00000E+00
 -1         8 0.00000E+00 0.00000E+00 0.00000E+00
 -1        21 0.00000E+00 0.00000E+00 0.00000E+00
 -1        22 0.00000E+00 0.00000E+00 0.00000E+00
 -1        23 0.00000E+00 0.00000E+00 0.00000E+00
 -1        24 0.00000E+00 0.00000E+00 0.00000E+00
 -1        25 0.00000E+00 0.00000E+00 0.00000E+00
 -1        26 0.00000E+00 0.00000E+00 0.00000E+00
 -1        27 0.00000E+00 0.00000E+00 0.00000E+00
 -1        28 0.00000E+00 0.00000E+00 0.00000E+00
 -1        29 0.00000E+00 0.00000E+00 0.00000E+00
 -1        30 0.00000E+00 0.00000E+00 0.00000E+00
 -1        31 0.00000E+00 0.00000E+00 0.00000E+00
 -1        32 0.00000E+00 0.00000E+00 0.00000E+00
 -1        44 3.33777E-04-1.08021E-03 2.00591E-04
 -1        45 9.73293E-05-9.36706E-04 2.51665E-04
 -1        46-8.36078E-05-6.92418E-04 3.03959E-04
 -1        47 5.37580E-05-2.99287E-04 1.98451E-04
 -1        48-5.37616E-05-2.99293E-04 1.98469E-04
 -1        49 8.36396E-05-6.92398E-04 3.03949E-04
 -1        50-9.73406E-05-9.36736E-04 2.51673E-04
 -1        51-3.33741E-04-1.08012E-03 2.00532E-04
 -1        74-3.28025E-04-1.08601E-03-2.00578E-04
 -1        75-9.40659E-05-9.39979E-04-2.51674E-04
 -1        76 8.17415E-05-6.90557E-04-3.03988E-04
 -1        77-5.46880E-05-2.98352E-04-1.98462E-04
 -1        89 3.28043E-04-1.08599E-03-2.00590E-04
 -1        90 9.40808E-05-9.40015E-04-2.51722E-04
 -1        91-8.17498E-05-6.90539E-04-3.03983E-04
 -1        92 5.46928E-05-2.98359E-04-1.98475E-04
 -1        98 0.00000E+00 0.00000E+00 0.00000E+00
 -1        99 0.00000E+00 0.00000E+00 0.00000E+00
 -1       100 0.00000E+00 0.00000E+00 0.00000E+00
 -1       101 0.00000E+00 0.00000E+00 0.00000E+00
 -1       102 0.00000E+00 0.00000E+00 0.00000E+00
 -1       124-2.38110E-05-1.20893E-03 1.86006E-04
 -1       125-4.91044E-08-1.51617E-03 1.94093E-04
 -1       126 2.37817E-05-1.20894E-03 1.86016E-04
 -1       127 1.81632E-08-1.05111E-03 3.51509E-04
 -1       128 5.31258E-06-7.04413E-04 3.52924E-04
 -1       129-9.41167E-09-6.53844E-04 3.74156E-04
 -1       130-5.30672E-06-7.04429E-04 3.52932E-04
 -1       131 2.83518E-09-2.85238E-04 1.86024E-04
 -1       153-2.38507E-04-1.42406E-03 8.30776E-05
 -1       154 1.16406E-06-1.50911E-03 5.80131E-09
 -1       155 2.36514E-04-1.42602E-03-8.31310E-05
 -1       156-6.78239E-08-1.15169E-03-3.08105E-07
 -1       157 5.01508E-05-6.03065E-04 1.37009E-04
 -1       158-2.56766E-08-5.81459E-04-7.92958E-08
 -1       159-4.96860E-05-6.02399E-04-1.36922E-04
 -1       160-1.71257E-08-2.00039E-04-3.85123E-08
 -1       182-2.18522E-05-1.20700E-03-1.86082E-04
 -1       183 5.66259E-08-1.51861E-03-1.94201E-04
 -1       184 2.19188E-05-1.20700E-03-1.86079E-04
 -1       185-2.92464E-09-1.05095E-03-3.50953E-04
 -1       186 4.64066E-06-7.04925E-04-3.53034E-04
 -1       187 7.74089E-09-6.53848E-04-3.74013E-04
 -1       188-4.63841E-06-7.04915E-04-3.53035E-04
 -1       189-1.28036E-09-2.85216E-04-1.85945E-04
 -1       211-2.36459E-04-1.42607E-03-8.31773E-05
 -1       212-1.13142E-06-1.50921E-03-3.65463E-08
 -1       213 2.38527E-04-1.42407E-03 8.30922E-05
 -1       214 8.08029E-08-1.15166E-03-3.18801E-07
 -1       215 4.96789E-05-6.02405E-04-1.36918E-04
 -1       216 2.99209E-08-5.81493E-04-8.17274E-08
 -1       217-5.01304E-05-6.03073E-04 1.36989E-04
 -1       218 1.87216E-08-2.00037E-04-3.96389E-08
 -1       250-2.05763E-08-1.53085E-03 7.91340E-05
 -1       251-1.86308E-07-9.44113E-04-1.96892E-08
 -1       252 1.88708E-08-1.37128E-03-7.59437E-08
 -1       253 2.19913E-07-9.44048E-04 9.33863E-10
 -1       254 3.98196E-08-1.53136E-03-7.91933E-05
 -1       255 7.26983E-09-1.08856E-03-1.80182E-08
 -1       256-2.80734E-09-6.00484E-04 1.65339E-04
 -1       257-5.45361E-08-7.15196E-04 3.08003E-08
 -1       258 2.07776E-09-6.01906E-04 1.70057E-09
 -1       259 5.89908E-08-7.15181E-04 3.22167E-08
 -1       260 4.91120E-09-6.00617E-04-1.65445E-04
 -1       261-3.99074E-10-2.59157E-04 5.27702E-09
 -3
    1PSTEP                         4           4           1          
  100CL  104 2.00000E-02          81                     1    4           1
 -4  DISP        4    1
 -5  D1          1    2    1    0
 -5  D2          1    2    2    0
 -5  D3          1    2    3    0
 -5  ALL         1    2    0    0    1ALL
 -1         5 0.00000E+00 0.00000E+00 0.00000E+00
 -1         6 0.00000E+00 0.00000E+00 0.00000E+00
 -1         7 0.00000E+00 0.00000E+00 0.00000E+00
 -1         8 0.00000E+00 0.00000E+00 0.00000E+00
 -1        21 0.00000E+00 0.00000E+00 0.00000E+00
 -1        22 0.00000E+00 0.00000E+00 0.00000E+00
 -1        23 0.00000E+00 0.00000E+00 0.00000E+00
 -1        24 0.00000E+00 0.00000E+00 0.00000E+00
 -1        25 0.00000E+00 0.00000E+00 0.00000E+00
 -1        26 0.00000E+00 0.00000E+00 0.00000E+00
 -1        27 0.00000E+00 0.00000E+00 0.00000E+00
 -1        28 0.00000E+00 0.00000E+00 0.00000E+00
 -1        29 0.00000E+00 0.00000E+00 0.00000E+00
 -1        30 0.00000E+00 0.00000E+00 0.00000E+00
 -1        31 0.00000E+00 0.00000E+00 0.00000E+00
 -1        32 0.00000E+00 0.00000E+00 0.00000E+00
 -1        44-2.60773E-04 8.37228E-04-1.55747E-04
 -1        45-7.61290E-05 7.26354E-04-1.95608E-04
 -1        46 6.53784E-05 5.38280E-04-2.35875E-04
 -1        47-4.15028E-05 2.32734E-04-1.54216E-04
 -1        48 4.14928E-05 2.32724E-04-1.54193E-04
 -1        49-6.53670E-05 5.38296E-04-2.35869E-04
 -1        50 7.60727E-05 7.26331E-04-1.95585E-04
 -1        51 2.60768E-04 8.37300E-04-1.55792E-04
 -1        74 2.57657E-04 8.41200E-04 1.55815E-04
 -1        75 7.42009E-05 7.28446E-04 1.95590E-04
 -1        76-6.42525E-05 5.37017E-04 2.35840E-04
 -1        77 4.20243E-05 2.32118E-04 1.54202E-04
 -1        89-2.57685E-04 8.41182E-04 1.55790E-04
 -1        90-7.42399E-05 7.28429E-04 1.95569E-04
 -1        91 6.42359E-05 5.37027E-04 2.35864E-04
 -1        92-4.20280E-05 2.32117E-04 1.54206E-04
 -1        98 0.00000E+00 0.00000E+00 0.00000E+00
 -1        99 0.00000E+00 0.00000E+00 0.00000E+00
 -1       100 0.00000E+00 0.00000E+00 0.00000E+00
 -1       101 0.00000E+00 0.00000E+00 0.00000E+00
 -1       102 0.00000E+00 0.00000E+00 0.00000E+00
 -1       124 1.80914E-05 9.39067E-04-1.44527E-04
 -1       125-6.98796E-08 1.17584E-03-1.50791E-04
 -1       126-1.81646E-05 9.39054E-04-1.44529E-04
 -1       127-3.28620E-09 8.16404E-04-2.72787E-04
 -1       128-4.09960E-06 5.46628E-04-2.73956E-04
 -1       129-1.91975E-08 5.07260E-04-2.90495E-04
 -1       130 4.08621E-06 5.46616E-04-2.73954E-04
 -1       131 2.62182E-10 2.21459E-04-1.44387E-04
 -1       153 1.86057E-04 1.10740E-03-6.46227E-05
 -1       154-4.46860E-07 1.17403E-03 3.23356E-08
 -1       155-1.85081E-04 1.10840E-03 6.46220E-05
 -1       156 1.58032E-07 8.93435E-04 1.95342E-07
 -1       157-3.91105E-05 4.68656E-04-1.06242E-04
 -1       158-9.09872E-08 4.52264E-04 3.86429E-08
 -1       159 3.88803E-05 4.68283E-04 1.06187E-04
 -1       160-2.70324E-08 1.55334E-04 1.68657E-08
 -1       182 1.74911E-05 9.37665E-04 1.44567E-04
 -1       183 2.93923E-09 1.17796E-03 1.50859E-04
 -1       184-1.75037E-05 9.37658E-04 1.44584E-04
 -1       185-1.79124E-08 8.16542E-04 2.72461E-04
 -1       186-3.77666E-06 5.46969E-04 2.74013E-04
 -1       187-6.18540E-09 5.07104E-04 2.90422E-04
 -1       188 3.76181E-06 5.46974E-04 2.74018E-04
 -1       189-2.70814E-09 2.21357E-04 1.44328E-04
 -1       211 1.85070E-04 1.10835E-03 6.46206E-05
 -1       212 4.07171E-07 1.17396E-03 2.50004E-08
 -1       213-1.86086E-04 1.10740E-03-6.46084E-05
 -1       214-1.91163E-07 8.93451E-04 2.08979E-07
 -1       215-3.89018E-05 4.68279E-04 1.06203E-04
 -1       216 7.39014E-08 4.52242E-04 5.36388E-08
 -1       217 3.91084E-05 4.68652E-04-1.06241E-04
 -1       218 2.05261E-08 1.55335E-04 2.61075E-08
 -1       250-4.97449E-08 1.18534E-03-6.14890E-05
 -1       251 1.75504E-07 7.33355E-04 5.88143E-09
 -1       252-1.88707E-08 1.06201E-03 4.58713E-08
 -1       253-2.13817E-07 7.33404E-04 4.31641E-09
 -1       254-7.34089E-09 1.18630E-03 6.15514E-05
 -1       255-1.22855E-08 8.45187E-04 7.11890E-09
 -1       256-1.41284E-08 4.66164E-04-1.28486E-04
 -1       257 2.83061E-08 5.55354E-04-1.95261E-08
 -1       258-1.01990E-08 4.67032E-04-3.26933E-09
 -1       259-4.67333E-08 5.55365E-04-2.58630E-08
 -1       260-8.27533E-09 4.66091E-04 1.28541E-04
 -1       261-3.13054E-09 2.01281E-04 3.31605E-09
 -3
    1PSTEP                         5           5           1          
  100CL  105 2.50000E-02          81                     1    5           1
 -4  DISP        4    1
 -5  D1          1    2    1    0
 -5  D2          1    2    2    0
 -5  D3          1    2    3    0
 -5  ALL         1    2    0    0    1ALL
 -1         5 0.00000E+00 0.00000E+00 0.00000E+00
 -1         6 0.00000E+00 0.00000E+00 0.00000E+00
 -1         7 0.00000E+00 0.00000E+00 0.00000E+00
 -1         8 0.00000E+00 0.00000E+00 0.00000E+00
 -1        21 0.00000E+00 0.00000E+00 0.00000E+00
 -1        22 0.00000E+00 0.00000E+00 0.00000E+00
 -1        23 0.00000E+00 0.00000E+00 0.00000E+00
 -1        24 0.00000E+00 0.00000E+00 0.00000E+00
 -1        25 0.00000E+00 0.00000E+00 0.00000E+00
 -1        26 0.00000E+00 0.00000E+00 0.00000E+00
 -1        27 0.00000E+00 0.00000E+00 0.00000E+00
 -1        28 0.00000E+00 0.00000E+00 0.00000E+00
 -1        29 0.00000E+00 0.00000E+00 0.00000E+00
 -1        30 0.00000E+00 0.00000E+00 0.00000E+00
 -1        31 0.00000E+00 0.00000E+00 0.00000E+00
 -1        32 0.00000E+00 0.00000E+00 0.00000E+00
 -1        44 1.94244E-04-6.34412E-04 1.17492E-04
 -1        45 5.60652E-05-5.49655E-04 1.47428E-04
 -1        46-4.86207E-05-4.05318E-04 1.77991E-04
 -1        47 3.17186E-05-1.75158E-04 1.16310E-04
 -1        48-3.17289E-05-1.75167E-04 1.16328E-04
 -1        49 4.86032E-05-4.05318E-04 1.78015E-04
 -1        50-5.61259E-05-5.49674E-04 1.47450E-04
 -1        51-1.94300E-04-6.34373E-04 1.17475E-04
 -1        74-1.95061E-04-6.33417E-04-1.17444E-04
 -1        75-5.65800E-05-5.49178E-04-1.47445E-04
 -1        76 4.86642E-05-4.05408E-04-1.78028E-04
 -1        77-3.16173E-05-1.75294E-04-1.16330E-04
 -1        89 1.94999E-04-6.33460E-04-1.17464E-04
 -1        90 5.65011E-05-5.49180E-04-1.47427E-04
 -1        91-4.86929E-05-4.05416E-04-1.78000E-04
 -1        92 3.16033E-05-1.75291E-04-1.16313E-04
 -1        98 0.00000E+00 0.00000E+00 0.00000E+00
 -1        99 0.00000E+00 0.00000E+00 0.00000E+00
 -1       100 0.00000E+00 0.00000E+00 0.00000E+00
 -1       101 0.00000E+00 0.00000E+00 0.00000E+00
 -1       102 0.00000E+00 0.00000E+00 0.00000E+00
 -1       124-1.25524E-05-7.07634E-04 1.09007E-04
 -1       125-4.72780E-08-8.88893E-04 1.13756E-04
 -1       126 1.24764E-05-7.07645E-04 1.09005E-04
 -1       127-2.11714E-08-6.15977E-04 2.05690E-04
 -1       128 2.74041E-06-4.12785E-04 2.06764E-04
 -1       129-1.66815E-08-3.82816E-04 2.19136E-04
 -1       130-2.76542E-06-4.12787E-04 2.06754E-04
 -1       131-2.63260E-09-1.67103E-04 1.08954E-04
 -1       153-1.39495E-04-8.36275E-04 4.87065E-05
 -1       154-8.87915E-08-8.85012E-04 2.90979E-08
 -1       155 1.39706E-04-8.34427E-04-4.87055E-05
 -1       156-1.21428E-08-6.74561E-04 4.36935E-08
 -1       157 2.93091E-05-3.53113E-04 8.01729E-05
 -1       158 3.90026E-08-3.40925E-04-2.70597E-09
 -1       159-2.93778E-05-3.53471E-04-8.02015E-05
 -1       160-1.98734E-08-1.17206E-04-1.77361E-08
 -1       182-1.43046E-05-7.07973E-04-1.08998E-04
 -1       183-4.91265E-08-8.88439E-04-1.13726E-04
 -1       184 1.42232E-05-7.07985E-04-1.08979E-04
 -1       185-2.69179E-08-6.15914E-04-2.05777E-04
 -1       186 3.08674E-06-4.12705E-04-2.06748E-04
 -1       187-2.22590E-08-3.82990E-04-2.19153E-04
 -1       188-3.12299E-06-4.12710E-04-2.06742E-04
 -1       189-5.31549E-09-1.67116E-04-1.08945E-04
 -1       211-1.39737E-04-8.34452E-04-4.87105E-05
 -1       212 7.53850E-08-8.85025E-04 8.01703E-10
 -1       213 1.39462E-04-8.36265E-04 4.87112E-05
 -1       214-6.81294E-08-6.74566E-04 6.25618E-08
 -1       215 2.93534E-05-3.53480E-04-8.01796E-05
 -1       216-5.55928E-08-3.40933E-04 2.24695E-08
 -1       217-2.93274E-05-3.53116E-04 8.01901E-05
 -1       218 4.36049E-09-1.17209E-04 4.73666E-09
 -1       250-5.37742E-08-8.95461E-04 4.63488E-05
 -1       251-7.80495E-07-5.53159E-04 1.69249E-08
 -1       252-5.62650E-08-8.02703E-04-2.21795E-09
 -1       253 7.11058E-07-5.53152E-04-1.81873E-08
 -1       254-5.46941E-08-8.96838E-04-4.63335E-05
 -1       255-1.85421E-08-6.37780E-04 4.27653E-09
 -1       256-2.13112E-08-3.51950E-04 9.69384E-05
 -1       257 1.32742E-07-4.19104E-04-4.49192E-09
 -1       258-2.59187E-08-3.52572E-04 1.00230E-09
 -1       259-1.65870E-07-4.19100E-04-5.59213E-09
 -1       260-2.40473E-08-3.51684E-04-9.69257E-05
 -1       261-4.06962E-09-1.51868E-04 8.55987E-10
 -3
    1PSTEP                         6           6           1          
  100CL  106 3.00000E-02          81                     1    6           1
 -4  DISP        4    1
 -5  D1          1    2    1    0
 -5  D2          1    2    2    0
 -5  D3          1    2    3    0
 -5  ALL         1    2    0    0    1ALL
 -1         5 0.00000E+00 0.00000E+00 0.00000E+00
 -1         6 0.00000E+00 0.00000E+00 0.00000E+00
 -1         7 0.00000E+00 0.00000E+00 0.00000E+00
 -1         8 0.00000E+00 0.00000E+00 0.00000E+00
 -1        21 0.00000E+00 0.00000E+00 0.00000E+00
 -1        22 0.00000E+00 0.00000E+00 0.00000E+00
 -1        23 0.00000E+00 0.00000E+00 0.00000E+00
 -1        24 0.00000E+00 0.00000E+00 0.00000E+00
 -1        25 0.00000E+00 0.00000E+00 0.00000E+00
 -1        26 0.00000E+00 0.00000E+00 0.00000E+00
 -1        27 0.00000E+00 0.00000E+00 0.00000E+00
 -1        28 0.00000E+00 0.00000E+00 0.00000E+00
 -1        29 0.00000E+00 0.00000E+00 0.00000E+00
 -1        30 0.00000E+00 0.00000E+00 0.00000E+00
 -1        31 0.00000E+00 0.00000E+00 0.00000E+00
 -1        32 0.00000E+00 0.00000E+00 0.00000E+00
 -1        44-1.42274E-04 4.58523E-04-8.51713E-05
 -1        45-4.14363E-05 3.97726E-04-1.06907E-04
 -1        46 3.55918E-05 2.94252E-04-1.29037E-04
 -1        47-2.27806E-05 1.27243E-04-8.43423E-05