    1C
    1UUSER                                                              
    1UDATE              18.july.2018                                    
    1UTIME              00:54:15                                        
    1UHOST                                                              
    1UPGM               CalculiX                                        
    1UVERSION           Version 2.13                             
    1UCOMPILETIME       jue jun 14 00:40:39 CEST 2018                    
    1UDIR                                                               
    1UDBN                                                               
    1UMAT    1EL                                                        
    2C                            81                                     1
 -1         5 0.00000E+00 0.00000E+00 8.00000E+00
 -1         6 1.00000E+00 0.00000E+00 8.00000E+00
 -1         7 1.00000E+00 1.00000E+00 8.00000E+00
 -1         8 0.00000E+00 1.00000E+00 8.00000E+00
 -1        21 2.50000E-01 0.00000E+00 8.00000E+00
 -1        22 5.00000E-01 0.00000E+00 8.00000E+00
 -1        23 7.50000E-01 0.00000E+00 8.00000E+00
 -1        24 1.00000E+00 2.50000E-01 8.00000E+00
 -1        25 1.00000E+00 5.00000E-01 8.00000E+00
 -1        26 1.00000E+00 7.50000E-01 8.00000E+00
 -1        27 7.50000E-01 1.00000E+00 8.00000E+00
 -1        28 5.00000E-01 1.00000E+00 8.00000E+00
 -1        29 2.50000E-01 1.00000E+00 8.00000E+00
 -1        30 0.00000E+00 7.50000E-01 8.00000E+00
 -1        31 0.00000E+00 5.00000E-01 8.00000E+00
 -1        32 0.00000E+00 2.50000E-01 8.00000E+00
 -1        44 1.00000E+00 0.00000E+00 6.00000E+00
 -1        45 1.00000E+00 0.00000E+00 6.50000E+00
 -1        46 1.00000E+00 0.00000E+00 7.00000E+00
 -1        47 1.00000E+00 0.00000E+00 7.50000E+00
 -1        48 0.00000E+00 0.00000E+00 7.50000E+00
 -1        49 0.00000E+00 0.00000E+00 7.00000E+00
 -1        50 0.00000E+00 0.00000E+00 6.50000E+00
 -1        51 0.00000E+00 0.00000E+00 6.00000E+00
 -1        74 1.00000E+00 1.00000E+00 6.00000E+00
 -1        75 1.00000E+00 1.00000E+00 6.50000E+00
 -1        76 1.00000E+00 1.00000E+00 7.00000E+00
 -1        77 1.00000E+00 1.00000E+00 7.50000E+00
 -1        89 0.00000E+00 1.00000E+00 6.00000E+00
 -1        90 0.00000E+00 1.00000E+00 6.50000E+00
 -1        91 0.00000E+00 1.00000E+00 7.00000E+00
 -1        92 0.00000E+00 1.00000E+00 7.50000E+00
 -1        98 5.00000E-01 2.50000E-01 8.00000E+00
 -1        99 2.50000E-01 5.00000E-01 8.00000E+00
 -1       100 5.00000E-01 5.00000E-01 8.00000E+00
 -1       101 7.50000E-01 5.00000E-01 8.00000E+00
 -1       102 5.00000E-01 7.50000E-01 8.00000E+00
 -1       124 2.50000E-01 0.00000E+00 6.00000E+00
 -1       125 5.00000E-01 0.00000E+00 6.00000E+00
 -1       126 7.50000E-01 0.00000E+00 6.00000E+00
 -1       127 5.00000E-01 0.00000E+00 6.50000E+00
 -1       128 2.50000E-01 0.00000E+00 7.00000E+00
 -1       129 5.00000E-01 0.00000E+00 7.00000E+00
 -1       130 7.50000E-01 0.00000E+00 7.00000E+00
 -1       131 5.00000E-01 0.00000E+00 7.50000E+00
 -1       153 1.00000E+00 2.50000E-01 6.00000E+00
 -1       154 1.00000E+00 5.00000E-01 6.00000E+00
 -1       155 1.00000E+00 7.50000E-01 6.00000E+00
 -1       156 1.00000E+00 5.00000E-01 6.50000E+00
 -1       157 1.00000E+00 2.50000E-01 7.00000E+00
 -1       158 1.00000E+00 5.00000E-01 7.00000E+00
 -1       159 1.00000E+00 7.50000E-01 7.00000E+00
 -1       160 1.00000E+00 5.00000E-01 7.50000E+00
 -1       182 7.50000E-01 1.00000E+00 6.00000E+00
 -1       183 5.00000E-01 1.00000E+00 6.00000E+00
 -1       184 2.50000E-01 1.00000E+00 6.00000E+00
 -1       185 5.00000E-01 1.00000E+00 6.50000E+00
 -1       186 7.50000E-01 1.00000E+00 7.00000E+00
 -1       187 5.00000E-01 1.00000E+00 7.00000E+00
 -1       188 2.50000E-01 1.00000E+00 7.00000E+00
 -1       189 5.00000E-01 1.00000E+00 7.50000E+00
 -1       211 0.00000E+00 7.50000E-01 6.00000E+00
 -1       212 0.00000E+00 5.00000E-01 6.00000E+00
 -1       213 0.00000E+00 2.50000E-01 6.00000E+00
 -1       214 0.00000E+00 5.00000E-01 6.50000E+00
 -1       215 0.00000E+00 7.50000E-01 7.00000E+00
 -1       216 0.00000E+00 5.00000E-01 7.00000E+00
 -1       217 0.00000E+00 2.50000E-01 7.00000E+00
 -1       218 0.00000E+00 5.00000E-01 7.50000E+00
 -1       250 5.00000E-01 2.50000E-01 6.00000E+00
 -1       251 2.50000E-01 5.00000E-01 6.00000E+00
 -1       252 5.00000E-01 5.00000E-01 6.00000E+00
 -1       253 7.50000E-01 5.00000E-01 6.00000E+00
 -1       254 5.00000E-01 7.50000E-01 6.00000E+00
 -1       255 5.00000E-01 5.00000E-01 6.50000E+00
 -1       256 5.00000E-01 2.50000E-01 7.00000E+00
 -1       257 2.50000E-01 5.00000E-01 7.00000E+00
 -1       258 5.00000E-01 5.00000E-01 7.00000E+00
 -1       259 7.50000E-01 5.00000E-01 7.00000E+00
 -1       260 5.00000E-01 7.50000E-01 7.00000E+00
 -1       261 5.00000E-01 5.00000E-01 7.50000E+00
 -3
    3C                             8                                     1
 -1        25    4    0    1
 -2        51       125       252       212        49       129       258       216       124       250
 -2       251       213        50       127       255       214       128       256       257       217
 -1        26    4    0    1
 -2       125        44       154       252       129        46       158       258       126       153
 -2       253       250       127        45       156       255       130       157       259       256
 -1        27    4    0    1
 -2       212       252       183        89       216       258       187        91       251       254
 -2       184       211       214       255       185        90       257       260       188       215
 -1        28    4    0    1
 -2       252       154        74       183       258       158        76       187       253       155
 -2       182       254       255       156        75       185       259       159       186       260
 -1        29    4    0    1
 -2        49       129       258       216         5        22       100        31       128       256
 -2       257       217        48       131       261       218        21        98        99        32
 -1        30    4    0    1
 -2       129        46       158       258        22         6        25       100       130       157
 -2       259       256       131        47       160       261        23        24       101        98
 -1        31    4    0    1
 -2       216       258       187        91        31       100        28         8       257       260
 -2       188       215       218       261       189        92        99       102        29        30
 -1        32    4    0    1
 -2       258       158        76       187       100        25         7        28       259       159
 -2       186       260       261       160        77       189       101        26        27       102
 -3
    1PSTEP                         1           1           1          
  100CL  101 5.00000E-03          81                     1    1           1
 -4  DISP        4    1
 -5  D1          1    2    1    0
 -5  D2          1    2    2    0
 -5  D3          1    2    3    0
 -5  ALL         1    2    0    0    1ALL
 -1         5 0.00000E+00 0.00000E+00 0.00000E+00
 -1         6 0.00000E+00 0.00000E+00 0.00000E+00
 -1         7 0.00000E+00 0.00000E+00 0.00000E+00
 -1         8 0.00000E+00 0.00000E+00 0.00000E+00
 -1        21 0.00000E+00 0.00000E+00 0.00000E+00
 -1        22 0.00000E+00 0.00000E+00 0.00000E+00
 -1        23 0.00000E+00 0.00000E+00 0.00000E+00
 -1        24 0.00000E+00 0.00000E+00 0.00000E+00
 -1        25 0.00000E+00 0.00000E+00 0.00000E+00
 -1        26 0.00000E+00 0.00000E+00 0.00000E+00
 -1        27 0.00000E+00 0.00000E+00 0.00000E+00
 -1        28 0.00000E+00 0.00000E+00 0.00000E+00
 -1        29 0.00000E+00 0.00000E+00 0.00000E+00
 -1        30 0.00000E+00 0.00000E+00 0.00000E+00
 -1        31 0.00000E+00 0.00000E+00 0.00000E+00
 -1        32 0.00000E+00 0.00000E+00 0.00000E+00
 -1        44 6.81392E-04-2.79626E-03 4.78626E-04
 -1        45 3.28927E-04-2.30043E-03 6.58588E-04
 -1        46-2.20513E-04-1.76337E-03 8.54068E-04
 -1        47 1.24837E-04-7.03618E-04 4.60925E-04
 -1        48-1.24836E-04-7.03613E-04 4.60920E-04
 -1        49 2.20535E-04-1.76336E-03 8.54050E-04
 -1        50-3.28893E-04-2.30042E-03 6.58551E-04
 -1        51-6.81277E-04-2.79624E-03 4.78543E-04
 -1        74-2.53781E-04-3.95650E-03-5.36457E-04
 -1        75 1.80269E-05-2.82992E-03-6.70987E-04
 -1        76 2.55402E-05-1.50916E-03-8.65950E-04
 -1        77-2.23727E-04-5.27920E-04-4.70137E-04
 -1        89 2.53896E-04-3.95652E-03-5.36539E-04
 -1        90-1.79931E-05-2.82993E-03-6.71023E-04
 -1        91-2.55194E-05-1.50917E-03-8.65968E-04
 -1        92 2.23729E-04-5.27925E-04-4.70142E-04
 -1        98 0.00000E+00 0.00000E+00 0.00000E+00
 -1        99 0.00000E+00 0.00000E+00 0.00000E+00
 -1       100 0.00000E+00 0.00000E+00 0.00000E+00
 -1       101 0.00000E+00 0.00000E+00 0.00000E+00
 -1       102 0.00000E+00 0.00000E+00 0.00000E+00
 -1       124-6.50638E-05-3.14560E-03 4.45592E-04
 -1       125 3.65674E-08-3.87461E-03 4.73249E-04
 -1       126 6.51534E-05-3.14560E-03 4.45614E-04
 -1       127 2.41205E-08-2.57517E-03 9.45056E-04
 -1       128 3.51490E-05-1.80114E-03 9.13343E-04
 -1       129 3.04868E-09-1.69859E-03 9.45706E-04
 -1       130-3.51356E-05-1.80115E-03 9.13356E-04
 -1       131 4.50889E-11-6.85627E-04 4.66593E-04
 -1       153-3.55936E-04-3.24134E-03 1.79592E-04
 -1       154-8.41637E-05-2.91426E-03-3.12631E-05
 -1       155 3.07202E-04-3.63109E-03-2.39724E-04
 -1       156-1.20611E-04-2.88821E-03-7.94267E-05
 -1       157 7.73403E-05-1.46294E-03 3.71053E-04
 -1       158 8.90380E-05-1.37443E-03-2.88271E-05
 -1       159-3.19762E-05-1.39478E-03-3.90387E-04
 -1       160 3.87846E-05-5.33923E-04 1.36477E-06
 -1       182 2.77713E-05-2.66588E-03-4.97011E-04
 -1       183 3.67308E-08-4.74742E-03-5.02833E-04
 -1       184-2.76817E-05-2.66589E-03-4.97033E-04
 -1       185 2.40010E-08-2.85547E-03-9.17920E-04
 -1       186-2.26163E-05-2.02773E-03-9.64157E-04
 -1       187 3.13900E-09-1.70193E-03-9.81334E-04
 -1       188 2.26298E-05-2.02774E-03-9.64171E-04
 -1       189 3.64019E-11-6.58706E-04-4.68170E-04
 -1       211-3.07077E-04-3.63110E-03-2.39795E-04
 -1       212 8.42921E-05-2.91426E-03-3.13361E-05
 -1       213 3.56061E-04-3.24133E-03 1.79522E-04
 -1       214 1.20645E-04-2.88821E-03-7.94638E-05
 -1       215 3.19997E-05-1.39478E-03-3.90407E-04
 -1       216-8.90127E-05-1.37443E-03-2.88463E-05
 -1       217-7.73168E-05-1.46293E-03 3.71033E-04
 -1       218-3.87809E-05-5.33923E-04 1.36237E-06
 -1       250 3.56080E-08-4.09431E-03 1.60500E-04
 -1       251 5.32749E-05-2.51010E-03-2.26618E-05
 -1       252 3.51364E-08-3.45810E-03-2.05167E-05
 -1       253-5.31809E-05-2.51010E-03-2.26532E-05
 -1       254 3.58015E-08-4.42844E-03-2.47578E-04
 -1       255 2.66903E-08-2.63144E-03-3.50428E-05
 -1       256 3.17352E-09-1.53739E-03 3.88231E-04
 -1       257-5.06382E-05-1.67609E-03-9.75759E-06
 -1       258 2.53358E-09-1.62523E-03-1.71700E-05
 -1       259 5.06532E-05-1.67609E-03-9.74157E-06
 -1       260 3.19540E-09-1.55865E-03-4.24191E-04
 -1       261 1.73325E-09-6.58464E-04-3.56952E-06
 -3
    1PSTEP                         2           2           1          
  100CL  102 1.00000E-02          81                     1    2           1
 -4  DISP        4    1
 -5  D1          1    2    1    0
 -5  D2          1    2    2    0
 -5  D3          1    2    3    0
 -5  ALL         1    2    0    0    1ALL
 -1         5 0.00000E+00 0.00000E+00 0.00000E+00
 -1         6 0.00000E+00 0.00000E+00 0.00000E+00
 -1         7 0.00000E+00 0.00000E+00 0.00000E+00
 -1         8 0.00000E+00 0.00000E+00 0.00000E+00
 -1        21 0.00000E+00 0.00000E+00 0.00000E+00
 -1        22 0.00000E+00 0.00000E+00 0.00000E+00
 -1        23 0.00000E+00 0.00000E+00 0.00000E+00
 -1        24 0.00000E+00 0.00000E+00 0.00000E+00
 -1        25 0.00000E+00 0.00000E+00 0.00000E+00
 -1        26 0.00000E+00 0.00000E+00 0.00000E+00
 -1        27 0.00000E+00 0.00000E+00 0.00000E+00
 -1        28 0.00000E+00 0.00000E+00 0.00000E+00
 -1        29 0.00000E+00 0.00000E+00 0.00000E+00
 -1        30 0.00000E+00 0.00000E+00 0.00000E+00
 -1        31 0.00000E+00 0.00000E+00 0.00000E+00
 -1        32 0.00000E+00 0.00000E+00 0.00000E+00
 -1        44-4.19395E-04 1.36590E-03-2.53017E-04
 -1        45-1.22066E-04 1.18265E-03-3.17807E-04
 -1        46 1.05142E-04 8.73666E-04-3.83709E-04
 -1        47-6.79871E-05 3.77394E-04-2.50431E-04
 -1        48 6.79765E-05 3.77393E-04-2.50408E-04
 -1        49-1.05146E-04 8.73660E-04-3.83691E-04
 -1        50 1.21959E-04 1.18271E-03-3.17797E-04
 -1        51 4.19332E-04 1.36590E-03-2.52957E-04
 -1        74 4.16824E-04 1.37102E-03 2.53296E-04
 -1        75 1.20130E-04 1.18517E-03 3.18035E-04
 -1        76-1.04020E-04 8.72423E-04 3.83755E-04
 -1        77 6.85428E-05 3.76562E-04 2.50429E-04
 -1        89-4.16947E-04 1.37098E-03 2.53365E-04
 -1        90-1.20145E-04 1.18517E-03 3.18032E-04
 -1        91 1.04022E-04 8.72455E-04 3.83768E-04
 -1        92-6.85356E-05 3.76576E-04 2.50440E-04
 -1        98 0.00000E+00 0.00000E+00 0.00000E+00
 -1        99 0.00000E+00 0.00000E+00 0.00000E+00
 -1       100 0.00000E+00 0.00000E+00 0.00000E+00
 -1       101 0.00000E+00 0.00000E+00 0.00000E+00
 -1       102 0.00000E+00 0.00000E+00 0.00000E+00
 -1       124 2.84757E-05 1.52510E-03-2.34705E-04
 -1       125-8.75668E-08 1.91377E-03-2.45016E-04
 -1       126-2.85875E-05 1.52516E-03-2.34809E-04
 -1       127-1.12786E-08 1.32682E-03-4.43227E-04
 -1       128-6.42770E-06 8.89052E-04-4.45336E-04
 -1       129-3.40516E-08 8.24532E-04-4.71937E-04
 -1       130 6.38977E-06 8.89044E-04-4.45327E-04
 -1       131-7.65572E-10 3.59761E-04-2.34622E-04
 -1       153 3.00126E-04 1.79914E-03-1.04763E-04
 -1       154 7.91534E-08 1.90322E-03 3.05140E-07
 -1       155-2.99478E-04 1.80029E-03 1.05068E-04
 -1       156 4.06033E-07 1.45221E-03 4.05477E-07
 -1       157-6.30860E-05 7.61078E-04-1.72754E-04
 -1       158-3.60727E-07 7.34628E-04 1.04054E-07
 -1       159 6.27625E-05 7.60860E-04 1.72828E-04
 -1       160-1.40018E-07 2.52724E-04-8.24188E-09
 -1       182 2.85692E-05 1.52298E-03 2.34880E-04
 -1       183-2.52395E-08 1.91715E-03 2.45170E-04
 -1       184-2.86407E-05 1.52298E-03 2.34883E-04
 -1       185-1.52294E-08 1.32787E-03 4.42999E-04
 -1       186-6.21821E-06 8.90088E-04 4.45606E-04
 -1       187 3.93455E-09 8.24841E-04 4.72111E-04
 -1       188 6.22008E-06 8.90098E-04 4.45621E-04
 -1       189 5.40611E-09 3.59737E-04 2.34648E-04
 -1       211 2.99398E-04 1.80024E-03 1.05125E-04
 -1       212-1.52696E-07 1.90323E-03 2.67392E-07
 -1       213-3.00164E-04 1.79918E-03-1.04743E-04
 -1       214-4.31689E-07 1.45223E-03 4.31512E-07
 -1       215-6.27791E-05 7.60894E-04 1.72836E-04
 -1       216 3.34588E-07 7.34651E-04 1.29947E-07
 -1       217 6.30648E-05 7.61080E-04-1.72732E-04
 -1       218 1.36372E-07 2.52732E-04-8.61187E-09
 -1       250-5.48646E-08 1.92883E-03-9.96114E-05
 -1       251 1.36751E-07 1.19261E-03 7.81784E-08
 -1       252 3.04210E-09 1.72670E-03 5.15139E-08
 -1       253-1.71410E-07 1.19261E-03 1.21620E-07
 -1       254-1.37141E-08 1.93065E-03 1.00252E-04
 -1       255-1.97902E-08 1.37316E-03 1.50498E-07
 -1       256-1.48920E-08 7.57876E-04-2.08695E-04
 -1       257 1.40535E-07 9.02153E-04 6.81470E-08
 -1       258-8.16816E-10 7.59816E-04 9.72122E-08
 -1       259-1.52611E-07 9.02142E-04 5.00996E-08
 -1       260 2.07680E-09 7.57987E-04 2.08830E-04
 -1       261-5.74640E-09 3.27252E-04 1.66917E-08
 -3
    1PSTEP                         3           3           1          
  100CL  103 1.50000E-02          81                     1    3           1
 -4  DISP        4    1
 -5  D1          1    2    1    0
 -5  D2          1    2    2    0
 -5  D3          1    2    3    0
 -5  ALL         1    2    0    0    1ALL
 -1         5 0.00000E+00 0.00000E+00 0.00000E+00
 -1         6 0.00000E+00 0.00000E+00 0.00000E+00
 -1         7 0.00000E+00 0.00000E+00 0.00000E+00
 -1         8 0.00000E+00 0.00000E+00 0.00000E+00
 -1        21 0.00000E+00 0.00000E+00 0.00000E+00
 -1        22 0.00000E+00 0.00000E+00 0.00000E+00
 -1        23 0.00000E+00 0.00000E+00 0.00000E+00
 -1        24 0.00000E+00 0.00000E+00 0.00000E+00
 -1        25 0.00000E+00 0.00000E+00 0.00000E+00
 -1        26 0.00000E+00 0.00000E+00 0.00000E+00
 -1        27 0.00000E+00 0.00000E+00 0.00000E+00
 -1        28 0.00000E+00 0.00000E+00 0.00000E+00
 -1        29 0.00000E+00 0.00000E+00 0.00000E+00
 -1        30 0.00000E+00 0.00000E+00 0.00000E+00
 -1        31 0.00000E+00 0.00000E+00 0.00000E+00
 -1        32 0.00000E+00 0.00000E+00 0.00000E+00
 -1        44 3.34212E-04-1.08038E-03 2.00477E-04
 -1        45 9.72867E-05-9.36554E-04 2.51656E-04
 -1        46-8.34864E-05-6.92152E-04 3.03776E-04
 -1        47 5.37144E-05-2.99274E-04 1.98471E-04
 -1        48-5.37135E-05-2.99266E-04 1.98462E-04
 -1        49 8.34813E-05-6.92140E-04 3.03773E-04
 -1        50-9.72587E-05-9.36554E-04 2.51644E-04
 -1        51-3.34172E-04-1.08039E-03 2.00444E-04
 -1        74-3.29081E-04-1.08579E-03-2.00460E-04
 -1        75-9.43783E-05-9.39531E-04-2.51621E-04
 -1        76 8.22558E-05-6.90858E-04-3.03764E-04
 -1        77-5.45049E-05-2.98443E-04-1.98469E-04
 -1        89 3.29134E-04-1.08577E-03-2.00484E-04
 -1        90 9.44267E-05-9.39511E-04-2.51624E-04
 -1        91-8.22449E-05-6.90859E-04-3.03778E-04
 -1        92 5.45091E-05-2.98444E-04-1.98479E-04
 -1        98 0.00000E+00 0.00000E+00 0.00000E+00
 -1        99 0.00000E+00 0.00000E+00 0.00000E+00
 -1       100 0.00000E+00 0.00000E+00 0.00000E+00
 -1       101 0.00000E+00 0.00000E+00 0.00000E+00
 -1       102 0.00000E+00 0.00000E+00 0.00000E+00
 -1       124-2.52542E-05-1.20829E-03 1.85893E-04
 -1       125 3.58036E-08-1.51601E-03 1.94065E-04
 -1       126 2.53054E-05-1.20831E-03 1.85902E-04
 -1       127 6.56910E-09-1.05138E-03 3.51263E-04
 -1       128 5.55834E-06-7.04262E-04 3.52783E-04
 -1       129 7.13065E-09-6.53399E-04 3.73981E-04
 -1       130-5.55306E-06-7.04264E-04 3.52787E-04
 -1       131-2.29821E-09-2.85107E-04 1.85929E-04
 -1       153-2.38842E-04-1.42317E-03 8.30709E-05
 -1       154 9.22053E-07-1.50954E-03-7.59706E-09
 -1       155 2.37193E-04-1.42831E-03-8.30688E-05
 -1       156-8.15732E-08-1.15094E-03-2.80680E-07
 -1       157 5.02319E-05-6.03446E-04 1.36875E-04
 -1       158-1.16476E-07-5.81924E-04-6.05378E-08
 -1       159-4.98319E-05-6.02262E-04-1.36789E-04
 -1       160 1.55105E-08-2.00106E-04-8.28115E-09
 -1       182-2.02229E-05-1.20639E-03-1.85913E-04
 -1       183 3.21629E-08-1.51836E-03-1.94060E-04
 -1       184 2.02778E-05-1.20640E-03-1.85953E-04
 -1       185 1.31564E-08-1.05143E-03-3.50735E-04
 -1       186 4.39677E-06-7.04726E-04-3.52872E-04
 -1       187 1.18696E-08-6.53044E-04-3.73878E-04
 -1       188-4.37849E-06-7.04724E-04-3.52872E-04
 -1       189 1.08041E-09-2.85071E-04-1.85908E-04
 -1       211-2.37154E-04-1.42828E-03-8.30878E-05
 -1       212-8.70414E-07-1.50952E-03-7.65220E-09
 -1       213 2.38878E-04-1.42318E-03 8.30531E-05
 -1       214 1.02332E-07-1.15094E-03-2.98985E-07
 -1       215 4.98488E-05-6.02262E-04-1.36803E-04
 -1       216 1.33755E-07-5.81916E-04-7.53620E-08
 -1       217-5.02234E-05-6.03432E-04 1.36867E-04
 -1       218-1.23501E-08-2.00103E-04-9.84359E-09
 -1       250 2.42780E-08-1.53069E-03 7.90943E-05
 -1       251 1.50764E-06-9.44202E-04 1.86916E-08
 -1       252 5.11515E-09-1.36928E-03-5.73332E-09
 -1       253-1.47672E-06-9.44211E-04 1.04729E-08
 -1       254 2.15304E-08-1.52794E-03-7.91262E-05
 -1       255 1.29905E-08-1.08815E-03-1.35354E-08
 -1       256 4.29592E-09-6.00020E-04 1.65349E-04
 -1       257-3.52774E-07-7.15109E-04 2.61768E-08
 -1       258 2.77023E-09-6.01808E-04-5.37956E-09
 -1       259 3.63379E-07-7.15114E-04 3.52379E-08
 -1       260 6.71380E-09-6.00692E-04-1.65434E-04
 -1       261 3.25888E-09-2.59228E-04 7.18934E-11
 -3
    1PSTEP                         4           4           1          
  100CL  104 2.00000E-02          81                     1    4           1
 -4  DISP        4    1
 -5  D1          1    2    1    0
 -5  D2          1    2    2    0
 -5  D3          1    2    3    0
 -5  ALL         1    2    0    0    1ALL
 -1         5 0.00000E+00 0.00000E+00 0.00000E+00
 -1         6 0.00000E+00 0.00000E+00 0.00000E+00
 -1         7 0.00000E+00 0.00000E+00 0.00000E+00
 -1         8 0.00000E+00 0.00000E+00 0.00000E+00
 -1        21 0.00000E+00 0.00000E+00 0.00000E+00
 -1        22 0.00000E+00 0.00000E+00 0.00000E+00
 -1        23 0.00000E+00 0.00000E+00 0.00000E+00
 -1        24 0.00000E+00 0.00000E+00 0.00000E+00
 -1        25 0.00000E+00 0.00000E+00 0.00000E+00
 -1        26 0.00000E+00 0.00000E+00 0.00000E+00
 -1        27 0.00000E+00 0.00000E+00 0.00000E+00
 -1        28 0.00000E+00 0.00000E+00 0.00000E+00
 -1        29 0.00000E+00 0.00000E+00 0.00000E+00
 -1        30 0.00000E+00 0.00000E+00 0.00000E+00
 -1        31 0.00000E+00 0.00000E+00 0.00000E+00
 -1        32 0.00000E+00 0.00000E+00 0.00000E+00
 -1        44-2.59640E-04 8.38616E-04-1.55675E-04
 -1        45-7.54950E-05 7.27020E-04-1.95454E-04
 -1        46 6.50257E-05 5.37627E-04-2.35781E-04
 -1        47-4.16624E-05 2.32440E-04-1.54153E-04
 -1        48 4.16690E-05 2.32443E-04-1.54161E-04
 -1        49-6.50074E-05 5.37626E-04-2.35799E-04
 -1        50 7.55369E-05 7.27023E-04-1.95470E-04
 -1        51 2.59684E-04 8.38612E-04-1.55675E-04
 -1        74 2.57779E-04 8.40945E-04 1.55678E-04
 -1        75 7.43530E-05 7.28278E-04 1.95488E-04
 -1        76-6.43316E-05 5.36925E-04 2.35798E-04
 -1        77 4.19951E-05 2.32076E-04 1.54156E-04
 -1        89-2.57744E-04 8.40952E-04 1.55683E-04
 -1        90-7.43090E-05 7.28265E-04 1.95466E-04
 -1        91 6.43421E-05 5.36928E-04 2.35780E-04
 -1        92-4.19882E-05 2.32071E-04 1.54144E-04
 -1        98 0.00000E+00 0.00000E+00 0.00000E+00
 -1        99 0.00000E+00 0.00000E+00 0.00000E+00
 -1       100 0.00000E+00 0.00000E+00 0.00000E+00
 -1       101 0.00000E+00 0.00000E+00 0.00000E+00
 -1       102 0.00000E+00 0.00000E+00 0.00000E+00
 -1       124 1.81323E-05 9.38186E-04-1.44459E-04
 -1       125 2.47523E-08 1.17676E-03-1.50793E-04
 -1       126-1.80834E-05 9.38191E-04-1.44450E-04
 -1       127 1.93694E-08 8.16390E-04-2.72656E-04
 -1       128-4.03417E-06 5.46682E-04-2.73888E-04
 -1       129 8.99158E-09 5.07058E-04-2.90367E-04
 -1       130 4.05163E-06 5.46681E-04-2.73881E-04
 -1       131 2.58630E-09 2.21349E-04-1.44341E-04
 -1       153 1.85737E-04 1.10701E-03-6.45646E-05
 -1       154-3.30475E-07 1.17310E-03 1.06698E-08
 -1       155-1.85037E-04 1.10794E-03 6.45614E-05
 -1       156 1.14833E-07 8.93238E-04 1.23710E-07
 -1       157-3.90281E-05 4.68431E-04-1.06194E-04
 -1       158-2.49882E-08 4.52154E-04 3.55160E-08
 -1       159 3.88944E-05 4.68150E-04 1.06185E-04
 -1       160-3.70995E-09 1.55356E-04 1.76322E-08
 -1       182 1.74361E-05 9.37335E-04 1.44451E-04
 -1       183 3.67778E-08 1.17783E-03 1.50782E-04
 -1       184-1.73795E-05 9.37337E-04 1.44438E-04
 -1       185 1.40815E-08 8.16460E-04 2.72410E-04
 -1       186-3.77032E-06 5.46878E-04 2.73935E-04
 -1       187 1.08793E-08 5.06946E-04 2.90332E-04
 -1       188 3.78556E-06 5.46880E-04 2.73929E-04
 -1       189 1.55211E-09 2.21306E-04 1.44318E-04
 -1       211 1.85091E-04 1.10793E-03 6.45331E-05
 -1       212 3.93837E-07 1.17309E-03-2.13815E-08
 -1       213-1.85683E-04 1.10700E-03-6.45819E-05
 -1       214-7.30360E-08 8.93240E-04 1.02801E-07
 -1       215-3.88800E-05 4.68150E-04 1.06172E-04
 -1       216 4.40328E-08 4.52149E-04 2.01428E-08
 -1       217 3.90470E-05 4.68427E-04-1.06211E-04
 -1       218 1.15084E-08 1.55355E-04 7.51306E-09
 -1       250 3.11187E-08 1.18595E-03-6.14484E-05
 -1       251 3.33627E-08 7.33292E-04-1.63879E-08
 -1       252 3.84817E-08 1.06189E-03-1.35976E-08
 -1       253 3.58068E-08 7.33301E-04 3.43209E-09
 -1       254 3.84326E-08 1.18609E-03 6.15137E-05
 -1       255 1.80203E-08 8.44857E-04-1.88107E-09
 -1       256 1.07326E-08 4.66044E-04-1.28453E-04
 -1       257 6.32460E-08 5.55230E-04-2.12694E-08
 -1       258 1.16241E-08 4.67089E-04 5.70256E-10
 -1       259-4.22997E-08 5.55232E-04-1.43974E-08
 -1       260 1.14634E-08 4.66066E-04 1.28472E-04
 -1       261 2.07036E-09 2.01286E-04 8.33583E-09
 -3
    1PSTEP                         5           5           1          
  100CL  105 2.50000E-02          81                     1    5           1
 -4  DISP        4    1
 -5  D1          1    2    1    0
 -5  D2          1    2    2    0
 -5  D3          1    2    3    0
 -5  ALL         1    2    0    0    1ALL
 -1         5 0.00000E+00 0.00000E+00 0.00000E+00
 -1         6 0.00000E+00 0.00000E+00 0.00000E+00
 -1         7 0.00000E+00 0.00000E+00 0.00000E+00
 -1         8 0.00000E+00 0.00000E+00 0.00000E+00
 -1        21 0.00000E+00 0.00000E+00 0.00000E+00
 -1        22 0.00000E+00 0.00000E+00 0.00000E+00
 -1        23 0.00000E+00 0.00000E+00 0.00000E+00
 -1        24 0.00000E+00 0.00000E+00 0.00000E+00
 -1        25 0.00000E+00 0.00000E+00 0.00000E+00
 -1        26 0.00000E+00 0.00000E+00 0.00000E+00
 -1        27 0.00000E+00 0.00000E+00 0.00000E+00
 -1        28 0.00000E+00 0.00000E+00 0.00000E+00
 -1        29 0.00000E+00 0.00000E+00 0.00000E+00
 -1        30 0.00000E+00 0.00000E+00 0.00000E+00
 -1        31 0.00000E+00 0.00000E+00 0.00000E+00
 -1        32 0.00000E+00 0.00000E+00 0.00000E+00
 -1        44 1.94178E-04-6.34708E-04 1.17469E-04
 -1        45 5.61317E-05-5.49697E-04 1.47445E-04
 -1        46-4.84560E-05-4.05049E-04 1.77994E-04
 -1        47 3.17350E-05-1.75090E-04 1.16294E-04
 -1        48-3.17258E-05-1.75083E-04 1.16279E-04
 -1        49 4.84742E-05-4.05046E-04 1.77972E-04
 -1        50-5.60644E-05-5.49698E-04 1.47424E-04
 -1        51-1.94105E-04-6.34737E-04 1.17456E-04
 -1        74-1.93959E-04-6.35066E-04-1.17470E-04
 -1        75-5.59640E-05-5.49828E-04-1.47429E-04
 -1        76 4.85243E-05-4.05078E-04-1.77962E-04
 -1        77-3.17448E-05-1.75047E-04-1.16274E-04
 -1        89 1.94043E-04-6.35025E-04-1.17482E-04
 -1        90 5.60292E-05-5.49832E-04-1.47450E-04
 -1        91-4.85048E-05-4.05079E-04-1.77985E-04
 -1        92 3.17537E-05-1.75054E-04-1.16290E-04
 -1        98 0.00000E+00 0.00000E+00 0.00000E+00
 -1        99 0.00000E+00 0.00000E+00 0.00000E+00
 -1       100 0.00000E+00 0.00000E+00 0.00000E+00
 -1       101 0.00000E+00 0.00000E+00 0.00000E+00
 -1       102 0.00000E+00 0.00000E+00 0.00000E+00
 -1       124-1.37242E-05-7.07392E-04 1.08934E-04
 -1       125 5.15231E-08-8.88973E-04 1.13717E-04
 -1       126 1.38100E-05-7.07392E-04 1.08953E-04
 -1       127 2.30888E-08-6.16002E-04 2.05654E-04
 -1       128 3.00376E-06-4.12774E-04 2.06715E-04
 -1       129 1.77824E-08-3.82779E-04 2.19078E-04
 -1       130-2.97670E-06-4.12773E-04 2.06722E-04
 -1       131 2.18993E-09-1.67043E-04 1.08932E-04
 -1       153-1.39364E-04-8.34831E-04 4.86788E-05
 -1       154 8.61289E-09-8.84364E-04-1.43530E-08
 -1       155 1.39387E-04-8.35848E-04-4.86550E-05
 -1       156 1.32436E-08-6.74352E-04 1.63348E-09
 -1       157 2.93135E-05-3.53291E-04 8.01862E-05
 -1       158-8.81259E-09-3.40957E-04 1.18768E-08
 -1       159-2.92872E-05-3.53108E-04-8.01637E-05
 -1       160 1.56730E-08-1.17255E-04 1.35770E-08
 -1       182-1.28174E-05-7.07283E-04-1.08932E-04
 -1       183 5.22021E-08-8.89167E-04-1.13731E-04
 -1       184 1.29086E-05-7.07276E-04-1.08951E-04
 -1       185 2.35804E-08-6.16069E-04-2.05626E-04
 -1       186 2.83221E-06-4.12804E-04-2.06721E-04
 -1       187 1.64358E-08-3.82668E-04-2.19078E-04
 -1       188-2.80567E-06-4.12801E-04-2.06729E-04
 -1       189 2.20449E-09-1.67031E-04-1.08940E-04
 -1       211-1.39330E-04-8.35824E-04-4.86775E-05
 -1       212 3.62200E-08-8.84368E-04-4.42078E-10
 -1       213 1.39412E-04-8.34854E-04 4.86677E-05
 -1       214 5.28306E-08-6.74349E-04-2.32812E-08
 -1       215 2.93097E-05-3.53111E-04-8.01828E-05
 -1       216 2.98332E-08-3.40960E-04-1.39345E-08
 -1       217-2.92911E-05-3.53289E-04 8.01654E-05
 -1       218-3.86160E-09-1.17255E-04-2.11033E-09
 -1       250 4.96666E-08-8.96570E-04 4.63493E-05
 -1       251 4.74985E-07-5.53280E-04-7.04443E-09
 -1       252 4.14741E-08-8.02344E-04 1.73800E-08
 -1       253-4.07148E-07-5.53276E-04 1.25936E-08
 -1       254 4.94062E-08-8.95774E-04-4.63650E-05
 -1       255 2.07682E-08-6.37549E-04 2.58311E-09
 -1       256 1.77101E-08-3.51690E-04 9.69013E-05
 -1       257-7.24656E-08-4.18993E-04-3.29262E-10
 -1       258 1.83090E-08-3.52633E-04-1.02130E-09
 -1       259 1.00113E-07-4.18992E-04 6.20958E-09
 -1       260 1.71537E-08-3.51832E-04-9.68993E-05
 -1       261 4.39569E-09-1.51894E-04-1.93171E-09
 -3
    1PSTEP                         6           6           1          
  100CL  106 3.00000E-02          81                     1    6           1
 -4  DISP        4    1
 -5  D1          1    2    1    0
 -5  D2          1    2    2    0
 -5  D3          1    2    3    0
 -5  ALL         1    2    0    0    1ALL
 -1         5 0.00000E+00 0.00000E+00 0.00000E+00
 -1         6 0.00000E+00 0.00000E+00 0.00000E+00
 -1         7 0.00000E+00 0.00000E+00 0.00000E+00
 -1         8 0.00000E+00 0.00000E+00 0.00000E+00
 -1        21 0.00000E+00 0.00000E+00 0.00000E+00
 -1        22 0.00000E+00 0.00000E+00 0.00000E+00
 -1        23 0.00000E+00 0.00000E+00 0.00000E+00
 -1        24 0.00000E+00 0.00000E+00 0.00000E+00
 -1        25 0.00000E+00 0.00000E+00 0.00000E+00
 -1        26 0.00000E+00 0.00000E+00 0.00000E+00
 -1        27 0.00000E+00 0.00000E+00 0.00000E+00
 -1        28 0.00000E+00 0.00000E+00 0.00000E+00
 -1        29 0.00000E+00 0.00000E+00 0.00000E+00
 -1        30 0.00000E+00 0.00000E+00 0.00000E+00
 -1        31 0.00000E+00 0.00000E+00 0.00000E+00
 -1        32 0.00000E+00 0.00000E+00 0.00000E+00
 -1        44-1.41264E-04 4.59707E-04-8.51645E-05
 -1        45-4.09044E-05 3.98325E-04-1.06898E-04
 -1        46 3.53676E-05 2.93937E-04-1.29027E-04
 -1        47-2.29249E-05 1.27059E-04-8.43370E-05