    1C
    1UUSER                                                              
    1UDATE              18.july.2018                                    
    1UTIME              00:41:14                                        
    1UHOST                                                              
    1UPGM               CalculiX                                        
    1UVERSION           Version 2.13                             
    1UCOMPILETIME       jue jun 14 00:40:39 CEST 2018                    
    1UDIR                                                               
    1UDBN                                                               
    1UMAT    1EL                                                        
    2C                            81                                     1
 -1         5 0.00000E+00 0.00000E+00 8.00000E+00
 -1         6 1.00000E+00 0.00000E+00 8.00000E+00
 -1         7 1.00000E+00 1.00000E+00 8.00000E+00
 -1         8 0.00000E+00 1.00000E+00 8.00000E+00
 -1        21 2.50000E-01 0.00000E+00 8.00000E+00
 -1        22 5.00000E-01 0.00000E+00 8.00000E+00
 -1        23 7.50000E-01 0.00000E+00 8.00000E+00
 -1        24 1.00000E+00 2.50000E-01 8.00000E+00
 -1        25 1.00000E+00 5.00000E-01 8.00000E+00
 -1        26 1.00000E+00 7.50000E-01 8.00000E+00
 -1        27 7.50000E-01 1.00000E+00 8.00000E+00
 -1        28 5.00000E-01 1.00000E+00 8.00000E+00
 -1        29 2.50000E-01 1.00000E+00 8.00000E+00
 -1        30 0.00000E+00 7.50000E-01 8.00000E+00
 -1        31 0.00000E+00 5.00000E-01 8.00000E+00
 -1        32 0.00000E+00 2.50000E-01 8.00000E+00
 -1        44 1.00000E+00 0.00000E+00 6.00000E+00
 -1        45 1.00000E+00 0.00000E+00 6.50000E+00
 -1        46 1.00000E+00 0.00000E+00 7.00000E+00
 -1        47 1.00000E+00 0.00000E+00 7.50000E+00
 -1        48 0.00000E+00 0.00000E+00 7.50000E+00
 -1        49 0.00000E+00 0.00000E+00 7.00000E+00
 -1        50 0.00000E+00 0.00000E+00 6.50000E+00
 -1        51 0.00000E+00 0.00000E+00 6.00000E+00
 -1        74 1.00000E+00 1.00000E+00 6.00000E+00
 -1        75 1.00000E+00 1.00000E+00 6.50000E+00
 -1        76 1.00000E+00 1.00000E+00 7.00000E+00
 -1        77 1.00000E+00 1.00000E+00 7.50000E+00
 -1        89 0.00000E+00 1.00000E+00 6.00000E+00
 -1        90 0.00000E+00 1.00000E+00 6.50000E+00
 -1        91 0.00000E+00 1.00000E+00 7.00000E+00
 -1        92 0.00000E+00 1.00000E+00 7.50000E+00
 -1        98 5.00000E-01 2.50000E-01 8.00000E+00
 -1        99 2.50000E-01 5.00000E-01 8.00000E+00
 -1       100 5.00000E-01 5.00000E-01 8.00000E+00
 -1       101 7.50000E-01 5.00000E-01 8.00000E+00
 -1       102 5.00000E-01 7.50000E-01 8.00000E+00
 -1       124 2.50000E-01 0.00000E+00 6.00000E+00
 -1       125 5.00000E-01 0.00000E+00 6.00000E+00
 -1       126 7.50000E-01 0.00000E+00 6.00000E+00
 -1       127 5.00000E-01 0.00000E+00 6.50000E+00
 -1       128 2.50000E-01 0.00000E+00 7.00000E+00
 -1       129 5.00000E-01 0.00000E+00 7.00000E+00
 -1       130 7.50000E-01 0.00000E+00 7.00000E+00
 -1       131 5.00000E-01 0.00000E+00 7.50000E+00
 -1       153 1.00000E+00 2.50000E-01 6.00000E+00
 -1       154 1.00000E+00 5.00000E-01 6.00000E+00
 -1       155 1.00000E+00 7.50000E-01 6.00000E+00
 -1       156 1.00000E+00 5.00000E-01 6.50000E+00
 -1       157 1.00000E+00 2.50000E-01 7.00000E+00
 -1       158 1.00000E+00 5.00000E-01 7.00000E+00
 -1       159 1.00000E+00 7.50000E-01 7.00000E+00
 -1       160 1.00000E+00 5.00000E-01 7.50000E+00
 -1       182 7.50000E-01 1.00000E+00 6.00000E+00
 -1       183 5.00000E-01 1.00000E+00 6.00000E+00
 -1       184 2.50000E-01 1.00000E+00 6.00000E+00
 -1       185 5.00000E-01 1.00000E+00 6.50000E+00
 -1       186 7.50000E-01 1.00000E+00 7.00000E+00
 -1       187 5.00000E-01 1.00000E+00 7.00000E+00
 -1       188 2.50000E-01 1.00000E+00 7.00000E+00
 -1       189 5.00000E-01 1.00000E+00 7.50000E+00
 -1       211 0.00000E+00 7.50000E-01 6.00000E+00
 -1       212 0.00000E+00 5.00000E-01 6.00000E+00
 -1       213 0.00000E+00 2.50000E-01 6.00000E+00
 -1       214 0.00000E+00 5.00000E-01 6.50000E+00
 -1       215 0.00000E+00 7.50000E-01 7.00000E+00
 -1       216 0.00000E+00 5.00000E-01 7.00000E+00
 -1       217 0.00000E+00 2.50000E-01 7.00000E+00
 -1       218 0.00000E+00 5.00000E-01 7.50000E+00
 -1       250 5.00000E-01 2.50000E-01 6.00000E+00
 -1       251 2.50000E-01 5.00000E-01 6.00000E+00
 -1       252 5.00000E-01 5.00000E-01 6.00000E+00
 -1       253 7.50000E-01 5.00000E-01 6.00000E+00
 -1       254 5.00000E-01 7.50000E-01 6.00000E+00
 -1       255 5.00000E-01 5.00000E-01 6.50000E+00
 -1       256 5.00000E-01 2.50000E-01 7.00000E+00
 -1       257 2.50000E-01 5.00000E-01 7.00000E+00
 -1       258 5.00000E-01 5.00000E-01 7.00000E+00
 -1       259 7.50000E-01 5.00000E-01 7.00000E+00
 -1       260 5.00000E-01 7.50000E-01 7.00000E+00
 -1       261 5.00000E-01 5.00000E-01 7.50000E+00
 -3
    3C                             8                                     1
 -1        25    4    0    1
 -2        51       125       252       212        49       129       258       216       124       250
 -2       251       213        50       127       255       214       128       256       257       217
 -1        26    4    0    1
 -2       125        44       154       252       129        46       158       258       126       153
 -2       253       250       127        45       156       255       130       157       259       256
 -1        27    4    0    1
 -2       212       252       183        89       216       258       187        91       251       254
 -2       184       211       214       255       185        90       257       260       188       215
 -1        28    4    0    1
 -2       252       154        74       183       258       158        76       187       253       155
 -2       182       254       255       156        75       185       259       159       186       260
 -1        29    4    0    1
 -2        49       129       258       216         5        22       100        31       128       256
 -2       257       217        48       131       261       218        21        98        99        32
 -1        30    4    0    1
 -2       129        46       158       258        22         6        25       100       130       157
 -2       259       256       131        47       160       261        23        24       101        98
 -1        31    4    0    1
 -2       216       258       187        91        31       100        28         8       257       260
 -2       188       215       218       261       189        92        99       102        29        30
 -1        32    4    0    1
 -2       258       158        76       187       100        25         7        28       259       159
 -2       186       260       261       160        77       189       101        26        27       102
 -3
    1PSTEP                         1           1           1          
  100CL  101 5.00000E-03          81                     1    1           1
 -4  DISP        4    1
 -5  D1          1    2    1    0
 -5  D2          1    2    2    0
 -5  D3          1    2    3    0
 -5  ALL         1    2    0    0    1ALL
 -1         5 0.00000E+00 0.00000E+00 0.00000E+00
 -1         6 0.00000E+00 0.00000E+00 0.00000E+00
 -1         7 0.00000E+00 0.00000E+00 0.00000E+00
 -1         8 0.00000E+00 0.00000E+00 0.00000E+00
 -1        21 0.00000E+00 0.00000E+00 0.00000E+00
 -1        22 0.00000E+00 0.00000E+00 0.00000E+00
 -1        23 0.00000E+00 0.00000E+00 0.00000E+00
 -1        24 0.00000E+00 0.00000E+00 0.00000E+00
 -1        25 0.00000E+00 0.00000E+00 0.00000E+00
 -1        26 0.00000E+00 0.00000E+00 0.00000E+00
 -1        27 0.00000E+00 0.00000E+00 0.00000E+00
 -1        28 0.00000E+00 0.00000E+00 0.00000E+00
 -1        29 0.00000E+00 0.00000E+00 0.00000E+00
 -1        30 0.00000E+00 0.00000E+00 0.00000E+00
 -1        31 0.00000E+00 0.00000E+00 0.00000E+00
 -1        32 0.00000E+00 0.00000E+00 0.00000E+00
 -1        44 6.79562E-04-2.79649E-03 4.78552E-04
 -1        45 3.28737E-04-2.29987E-03 6.58683E-04
 -1        46-2.20122E-04-1.76270E-03 8.53975E-04
 -1        47 1.24835E-04-7.03383E-04 4.60658E-04
 -1        48-1.24830E-04-7.03376E-04 4.60648E-04
 -1        49 2.20153E-04-1.76269E-03 8.53947E-04
 -1        50-3.28680E-04-2.29987E-03 6.58634E-04
 -1        51-6.79414E-04-2.79646E-03 4.78454E-04
 -1        74-2.46740E-04-3.96083E-03-5.36239E-04
 -1        75 2.08830E-05-2.83179E-03-6.71013E-04
 -1        76 2.39825E-05-1.50744E-03-8.65846E-04
 -1        77-2.24477E-04-5.27025E-04-4.69872E-04
 -1        89 2.46887E-04-3.96086E-03-5.36337E-04
 -1        90-2.08257E-05-2.83179E-03-6.71062E-04
 -1        91-2.39521E-05-1.50745E-03-8.65874E-04
 -1        92 2.24481E-04-5.27032E-04-4.69882E-04
 -1        98 0.00000E+00 0.00000E+00 0.00000E+00
 -1        99 0.00000E+00 0.00000E+00 0.00000E+00
 -1       100 0.00000E+00 0.00000E+00 0.00000E+00
 -1       101 0.00000E+00 0.00000E+00 0.00000E+00
 -1       102 0.00000E+00 0.00000E+00 0.00000E+00
 -1       124-6.72525E-05-3.14516E-03 4.45375E-04
 -1       125 5.50577E-08-3.87205E-03 4.73295E-04
 -1       126 6.73768E-05-3.14517E-03 4.45407E-04
 -1       127 3.41490E-08-2.57334E-03 9.44527E-04
 -1       128 3.57060E-05-1.80088E-03 9.13053E-04
 -1       129 8.50073E-09-1.69909E-03 9.45328E-04
 -1       130-3.56826E-05-1.80089E-03 9.13070E-04
 -1       131 9.70884E-10-6.85659E-04 4.66449E-04
 -1       153-3.54177E-04-3.23716E-03 1.79603E-04
 -1       154-8.29223E-05-2.91077E-03-3.12458E-05
 -1       155 3.03799E-04-3.63097E-03-2.39606E-04
 -1       156-1.20517E-04-2.88691E-03-7.96492E-05
 -1       157 7.69531E-05-1.46308E-03 3.71046E-04
 -1       158 8.88261E-05-1.37420E-03-2.88600E-05
 -1       159-3.11441E-05-1.39394E-03-3.90286E-04
 -1       160 3.87481E-05-5.34069E-04 1.35876E-06
 -1       182 3.01800E-05-2.66399E-03-4.96761E-04
 -1       183 5.51729E-08-4.74588E-03-5.02641E-04
 -1       184-3.00560E-05-2.66400E-03-4.96794E-04
 -1       185 3.39249E-08-2.85336E-03-9.16813E-04
 -1       186-2.30903E-05-2.02774E-03-9.63899E-04
 -1       187 8.61026E-09-1.70229E-03-9.80852E-04
 -1       188 2.31137E-05-2.02775E-03-9.63917E-04
 -1       189 9.40217E-10-6.58798E-04-4.68030E-04
 -1       211-3.03641E-04-3.63098E-03-2.39691E-04
 -1       212 8.30846E-05-2.91077E-03-3.13340E-05
 -1       213 3.54335E-04-3.23714E-03 1.79518E-04
 -1       214 1.20575E-04-2.88691E-03-7.96990E-05
 -1       215 3.11776E-05-1.39395E-03-3.90316E-04
 -1       216-8.87907E-05-1.37420E-03-2.88886E-05
 -1       217-7.69195E-05-1.46307E-03 3.71016E-04
 -1       218-3.87402E-05-5.34069E-04 1.35149E-06
 -1       250 5.55799E-08-4.09465E-03 1.60398E-04
 -1       251 5.43237E-05-2.50980E-03-2.25875E-05
 -1       252 5.57645E-08-3.45625E-03-2.04129E-05
 -1       253-5.41922E-05-2.50980E-03-2.25684E-05
 -1       254 5.57739E-08-4.42598E-03-2.47419E-04
 -1       255 3.70675E-08-2.63072E-03-3.50534E-05
 -1       256 8.98227E-09-1.53689E-03 3.87967E-04
 -1       257-5.08774E-05-1.67523E-03-9.72718E-06
 -1       258 8.56454E-09-1.62484E-03-1.71744E-05
 -1       259 5.09032E-05-1.67523E-03-9.70721E-06
 -1       260 9.00921E-09-1.55880E-03-4.23970E-04
 -1       261 3.03683E-09-6.58396E-04-3.56405E-06
 -3
    1PSTEP                         2           2           1          
  100CL  102 1.00000E-02          81                     1    2           1
 -4  DISP        4    1
 -5  D1          1    2    1    0
 -5  D2          1    2    2    0
 -5  D3          1    2    3    0
 -5  ALL         1    2    0    0    1ALL
 -1         5 0.00000E+00 0.00000E+00 0.00000E+00
 -1         6 0.00000E+00 0.00000E+00 0.00000E+00
 -1         7 0.00000E+00 0.00000E+00 0.00000E+00
 -1         8 0.00000E+00 0.00000E+00 0.00000E+00
 -1        21 0.00000E+00 0.00000E+00 0.00000E+00
 -1        22 0.00000E+00 0.00000E+00 0.00000E+00
 -1        23 0.00000E+00 0.00000E+00 0.00000E+00
 -1        24 0.00000E+00 0.00000E+00 0.00000E+00
 -1        25 0.00000E+00 0.00000E+00 0.00000E+00
 -1        26 0.00000E+00 0.00000E+00 0.00000E+00
 -1        27 0.00000E+00 0.00000E+00 0.00000E+00
 -1        28 0.00000E+00 0.00000E+00 0.00000E+00
 -1        29 0.00000E+00 0.00000E+00 0.00000E+00
 -1        30 0.00000E+00 0.00000E+00 0.00000E+00
 -1        31 0.00000E+00 0.00000E+00 0.00000E+00
 -1        32 0.00000E+00 0.00000E+00 0.00000E+00
 -1        44-4.20299E-04 1.36425E-03-2.52969E-04
 -1        45-1.22571E-04 1.18227E-03-3.17742E-04
 -1        46 1.05312E-04 8.73777E-04-3.83750E-04
 -1        47-6.78928E-05 3.77528E-04-2.50402E-04
 -1        48 6.78923E-05 3.77529E-04-2.50402E-04
 -1        49-1.05313E-04 8.73779E-04-3.83752E-04
 -1        50 1.22567E-04 1.18228E-03-3.17746E-04
 -1        51 4.20282E-04 1.36426E-03-2.52961E-04
 -1        74 4.16610E-04 1.37205E-03 2.53237E-04
 -1        75 1.19925E-04 1.18595E-03 3.17785E-04
 -1        76-1.03966E-04 8.72069E-04 3.83809E-04
 -1        77 6.86317E-05 3.76360E-04 2.50451E-04
 -1        89-4.16597E-04 1.37204E-03 2.53228E-04
 -1        90-1.19925E-04 1.18595E-03 3.17779E-04
 -1        91 1.03976E-04 8.72073E-04 3.83810E-04
 -1        92-6.86296E-05 3.76362E-04 2.50453E-04
 -1        98 0.00000E+00 0.00000E+00 0.00000E+00
 -1        99 0.00000E+00 0.00000E+00 0.00000E+00
 -1       100 0.00000E+00 0.00000E+00 0.00000E+00
 -1       101 0.00000E+00 0.00000E+00 0.00000E+00
 -1       102 0.00000E+00 0.00000E+00 0.00000E+00
 -1       124 2.98012E-05 1.52555E-03-2.34649E-04
 -1       125-4.77919E-09 1.91372E-03-2.44978E-04
 -1       126-2.98124E-05 1.52555E-03-2.34650E-04
 -1       127-2.39837E-09 1.32666E-03-4.43493E-04
 -1       128-6.66641E-06 8.89033E-04-4.45392E-04
 -1       129-8.21196E-10 8.24917E-04-4.72036E-04
 -1       130 6.66466E-06 8.89032E-04-4.45391E-04
 -1       131-1.10468E-10 3.59811E-04-2.34666E-04
 -1       153 3.00250E-04 1.79704E-03-1.04772E-04
 -1       154 2.28230E-07 1.90246E-03 1.74664E-07
 -1       155-2.99546E-04 1.80097E-03 1.05064E-04
 -1       156 6.85924E-07 1.45258E-03 4.94378E-07
 -1       157-6.31123E-05 7.61218E-04-1.72802E-04
 -1       158-4.30979E-07 7.34372E-04 1.65986E-07
 -1       159 6.27838E-05 7.60440E-04 1.72880E-04
 -1       160-2.12190E-07 2.52706E-04-4.66701E-09
 -1       182 2.75600E-05 1.52243E-03 2.34931E-04
 -1       183-1.28589E-09 1.91908E-03 2.45106E-04
 -1       184-2.75545E-05 1.52243E-03 2.34937E-04
 -1       185 5.19237E-09 1.32819E-03 4.43182E-04
 -1       186-5.96345E-06 8.90333E-04 4.45671E-04
 -1       187 5.25276E-10 8.24713E-04 4.72186E-04
 -1       188 5.96865E-06 8.90334E-04 4.45670E-04
 -1       189 1.70218E-09 3.59632E-04 2.34669E-04
 -1       211 2.99551E-04 1.80097E-03 1.05070E-04
 -1       212-2.40502E-07 1.90247E-03 1.71989E-07
 -1       213-3.00261E-04 1.79706E-03-1.04766E-04
 -1       214-6.79280E-07 1.45258E-03 4.95466E-07
 -1       215-6.27811E-05 7.60445E-04 1.72878E-04
 -1       216 4.28630E-07 7.34374E-04 1.66721E-07
 -1       217 6.31101E-05 7.61220E-04-1.72802E-04
 -1       218 2.13723E-07 2.52707E-04-7.06109E-09
 -1       250 1.20449E-09 1.93079E-03-9.96906E-05
 -1       251-8.93767E-07 1.19252E-03 1.07550E-07
 -1       252 8.44162E-09 1.72776E-03 1.20851E-07
 -1       253 8.97734E-07 1.19252E-03 1.20399E-07
 -1       254 2.51506E-09 1.93147E-03 1.00127E-04
 -1       255-5.31000E-10 1.37309E-03 1.84806E-07
 -1       256 1.24605E-09 7.57865E-04-2.08651E-04
 -1       257 4.02980E-07 9.02200E-04 3.84572E-08
 -1       258 3.01116E-09 7.60066E-04 8.25890E-08
 -1       259-4.01196E-07 9.02199E-04 3.54149E-08
 -1       260 2.00335E-09 7.58184E-04 2.08858E-04
 -1       261-4.02881E-10 3.27268E-04 1.96197E-08
 -3
    1PSTEP                         3           3           1          
  100CL  103 1.50000E-02          81                     1    3           1
 -4  DISP        4    1
 -5  D1          1    2    1    0
 -5  D2          1    2    2    0
 -5  D3          1    2    3    0
 -5  ALL         1    2    0    0    1ALL
 -1         5 0.00000E+00 0.00000E+00 0.00000E+00
 -1         6 0.00000E+00 0.00000E+00 0.00000E+00
 -1         7 0.00000E+00 0.00000E+00 0.00000E+00
 -1         8 0.00000E+00 0.00000E+00 0.00000E+00
 -1        21 0.00000E+00 0.00000E+00 0.00000E+00
 -1        22 0.00000E+00 0.00000E+00 0.00000E+00
 -1        23 0.00000E+00 0.00000E+00 0.00000E+00
 -1        24 0.00000E+00 0.00000E+00 0.00000E+00
 -1        25 0.00000E+00 0.00000E+00 0.00000E+00
 -1        26 0.00000E+00 0.00000E+00 0.00000E+00
 -1        27 0.00000E+00 0.00000E+00 0.00000E+00
 -1        28 0.00000E+00 0.00000E+00 0.00000E+00
 -1        29 0.00000E+00 0.00000E+00 0.00000E+00
 -1        30 0.00000E+00 0.00000E+00 0.00000E+00
 -1        31 0.00000E+00 0.00000E+00 0.00000E+00
 -1        32 0.00000E+00 0.00000E+00 0.00000E+00
 -1        44 3.34078E-04-1.08005E-03 2.00566E-04
 -1        45 9.72130E-05-9.36512E-04 2.51724E-04
 -1        46-8.37310E-05-6.92680E-04 3.03815E-04
 -1        47 5.37249E-05-2.99418E-04 1.98534E-04
 -1        48-5.37267E-05-2.99423E-04 1.98542E-04
 -1        49 8.37264E-05-6.92666E-04 3.03822E-04
 -1        50-9.72016E-05-9.36563E-04 2.51750E-04
 -1        51-3.34140E-04-1.07999E-03 2.00552E-04
 -1        74-3.30196E-04-1.08387E-03-2.00581E-04
 -1        75-9.50074E-05-9.38698E-04-2.51780E-04
 -1        76 8.22940E-05-6.91299E-04-3.03842E-04
 -1        77-5.43680E-05-2.98790E-04-1.98534E-04
 -1        89 3.30229E-04-1.08379E-03-2.00583E-04
 -1        90 9.49846E-05-9.38723E-04-2.51780E-04
 -1        91-8.23133E-05-6.91295E-04-3.03832E-04
 -1        92 5.43639E-05-2.98796E-04-1.98541E-04
 -1        98 0.00000E+00 0.00000E+00 0.00000E+00
 -1        99 0.00000E+00 0.00000E+00 0.00000E+00
 -1       100 0.00000E+00 0.00000E+00 0.00000E+00
 -1       101 0.00000E+00 0.00000E+00 0.00000E+00
 -1       102 0.00000E+00 0.00000E+00 0.00000E+00
 -1       124-2.29096E-05-1.20891E-03 1.86051E-04
 -1       125-2.09984E-08-1.51556E-03 1.94168E-04
 -1       126 2.28585E-05-1.20896E-03 1.86096E-04
 -1       127-7.85667E-09-1.05133E-03 3.51305E-04
 -1       128 5.12841E-06-7.04255E-04 3.52865E-04
 -1       129 6.08445E-09-6.53492E-04 3.74091E-04
 -1       130-5.12381E-06-7.04259E-04 3.52852E-04
 -1       131 3.28966E-13-2.85248E-04 1.85983E-04
 -1       153-2.38996E-04-1.42608E-03 8.31034E-05
 -1       154 8.54707E-07-1.51113E-03-1.46099E-08
 -1       155 2.37587E-04-1.42622E-03-8.31283E-05
 -1       156-5.14298E-08-1.15135E-03-2.01762E-07
 -1       157 5.02435E-05-6.03167E-04 1.36886E-04
 -1       158 1.76606E-08-5.81913E-04-5.76383E-08
 -1       159-4.99213E-05-6.02924E-04-1.36844E-04
 -1       160-2.55094E-08-2.00011E-04-4.00695E-08
 -1       182-2.27474E-05-1.20769E-03-1.86107E-04
 -1       183 1.84619E-08-1.51708E-03-1.94217E-04
 -1       184 2.27748E-05-1.20766E-03-1.86081E-04
 -1       185-8.41476E-09-1.05116E-03-3.50927E-04
 -1       186 4.86810E-06-7.04589E-04-3.52931E-04
 -1       187-6.60309E-09-6.53636E-04-3.73997E-04
 -1       188-4.88297E-06-7.04584E-04-3.52934E-04
 -1       189-3.93178E-09-2.85244E-04-1.85916E-04
 -1       211-2.37567E-04-1.42620E-03-8.31761E-05
 -1       212-8.70011E-07-1.51119E-03 9.85992E-09
 -1       213 2.38926E-04-1.42610E-03 8.31719E-05
 -1       214 3.06895E-08-1.15132E-03-1.96555E-07
 -1       215 4.99092E-05-6.02941E-04-1.36825E-04
 -1       216-1.99802E-08-5.81948E-04-5.48967E-08
 -1       217-5.02420E-05-6.03174E-04 1.36876E-04
 -1       218 2.15642E-08-2.00012E-04-3.31098E-08
 -1       250-2.08371E-08-1.52842E-03 7.91523E-05
 -1       251-7.80493E-07-9.44141E-04-1.10210E-08
 -1       252-2.83100E-08-1.36995E-03-1.02193E-08
 -1       253 7.45046E-07-9.44102E-04-3.26011E-08
 -1       254-4.03102E-09-1.52988E-03-7.91851E-05
 -1       255-5.94239E-09-1.08871E-03-2.30354E-09
 -1       256-1.67960E-09-6.00495E-04 1.65419E-04
 -1       257 6.73821E-08-7.15338E-04 2.56567E-08
 -1       258-7.17241E-09-6.01619E-04-5.89737E-09
 -1       259-7.60352E-08-7.15323E-04 2.62518E-08
 -1       260-7.18935E-09-6.00395E-04-1.65487E-04
 -1       261 7.24835E-10-2.59164E-04-1.46810E-10
 -3
    1PSTEP                         4           4           1          
  100CL  104 2.00000E-02          81                     1    4           1
 -4  DISP        4    1
 -5  D1          1    2    1    0
 -5  D2          1    2    2    0
 -5  D3          1    2    3    0
 -5  ALL         1    2    0    0    1ALL
 -1         5 0.00000E+00 0.00000E+00 0.00000E+00
 -1         6 0.00000E+00 0.00000E+00 0.00000E+00
 -1         7 0.00000E+00 0.00000E+00 0.00000E+00
 -1         8 0.00000E+00 0.00000E+00 0.00000E+00
 -1        21 0.00000E+00 0.00000E+00 0.00000E+00
 -1        22 0.00000E+00 0.00000E+00 0.00000E+00
 -1        23 0.00000E+00 0.00000E+00 0.00000E+00
 -1        24 0.00000E+00 0.00000E+00 0.00000E+00
 -1        25 0.00000E+00 0.00000E+00 0.00000E+00
 -1        26 0.00000E+00 0.00000E+00 0.00000E+00
 -1        27 0.00000E+00 0.00000E+00 0.00000E+00
 -1        28 0.00000E+00 0.00000E+00 0.00000E+00
 -1        29 0.00000E+00 0.00000E+00 0.00000E+00
 -1        30 0.00000E+00 0.00000E+00 0.00000E+00
 -1        31 0.00000E+00 0.00000E+00 0.00000E+00
 -1        32 0.00000E+00 0.00000E+00 0.00000E+00
 -1        44-2.57560E-04 8.40136E-04-1.55542E-04
 -1        45-7.42458E-05 7.28176E-04-1.95208E-04
 -1        46 6.42181E-05 5.36554E-04-2.35671E-04
 -1        47-4.20396E-05 2.31990E-04-1.54082E-04
 -1        48 4.20315E-05 2.31985E-04-1.54063E-04
 -1        49-6.42477E-05 5.36599E-04-2.35659E-04
 -1        50 7.42378E-05 7.28115E-04-1.95179E-04
 -1        51 2.57414E-04 8.40312E-04-1.55580E-04
 -1        74 2.59362E-04 8.38368E-04 1.55563E-04
 -1        75 7.52942E-05 7.27153E-04 1.95190E-04
 -1        76-6.49240E-05 5.37199E-04 2.35653E-04
 -1        77 4.17289E-05 2.32289E-04 1.54082E-04
 -1        89-2.59266E-04 8.38562E-04 1.55614E-04
 -1        90-7.53267E-05 7.27104E-04 1.95199E-04
 -1        91 6.49163E-05 5.37240E-04 2.35656E-04
 -1        92-4.17322E-05 2.32286E-04 1.54068E-04
 -1        98 0.00000E+00 0.00000E+00 0.00000E+00
 -1        99 0.00000E+00 0.00000E+00 0.00000E+00
 -1       100 0.00000E+00 0.00000E+00 0.00000E+00
 -1       101 0.00000E+00 0.00000E+00 0.00000E+00
 -1       102 0.00000E+00 0.00000E+00 0.00000E+00
 -1       124 1.76874E-05 9.37021E-04-1.44330E-04
 -1       125-4.25707E-08 1.17762E-03-1.50617E-04
 -1       126-1.77966E-05 9.36907E-04-1.44275E-04
 -1       127-2.52858E-08 8.15989E-04-2.72375E-04
 -1       128-3.83202E-06 5.46725E-04-2.73791E-04
 -1       129 2.40259E-09 5.06995E-04-2.90196E-04
 -1       130 3.81930E-06 5.46707E-04-2.73806E-04
 -1       131-3.96107E-09 2.21296E-04-1.44283E-04
 -1       153 1.84860E-04 1.10638E-03-6.45099E-05
 -1       154 4.74292E-07 1.17220E-03 3.44259E-08
 -1       155-1.85536E-04 1.10629E-03 6.45496E-05
 -1       156-4.01567E-08 8.93261E-04-9.17760E-08
 -1       157-3.88592E-05 4.67933E-04-1.06145E-04
 -1       158 1.02934E-08 4.51739E-04-2.13954E-08
 -1       159 3.90129E-05 4.68057E-04 1.06169E-04
 -1       160-1.84936E-08 1.55278E-04-1.99907E-08
 -1       182 1.78528E-05 9.37522E-04 1.44288E-04
 -1       183 1.77163E-08 1.17700E-03 1.50662E-04
 -1       184-1.77981E-05 9.37631E-04 1.44343E-04
 -1       185 2.36462E-09 8.16088E-04 2.72610E-04
 -1       186-3.96763E-06 5.46571E-04 2.73774E-04
 -1       187-1.63179E-08 5.06951E-04 2.90240E-04
 -1       188 3.94979E-06 5.46590E-04 2.73768E-04
 -1       189-1.83822E-09 2.21298E-04 1.44310E-04
 -1       211 1.85636E-04 1.10634E-03 6.44339E-05
 -1       212-4.49326E-07 1.17211E-03 2.40110E-08
 -1       213-1.84968E-04 1.10641E-03-6.44203E-05
 -1       214-4.24132E-09 8.93336E-04-8.74743E-08
 -1       215-3.90226E-05 4.68049E-04 1.06204E-04
 -1       216-9.27726E-09 4.51683E-04-1.35342E-08
 -1       217 3.88525E-05 4.67932E-04-1.06159E-04
 -1       218 1.00344E-08 1.55285E-04-7.50697E-09
 -1       250-3.14570E-08 1.18701E-03-6.14098E-05
 -1       251-3.71897E-07 7.32724E-04 5.42342E-08
 -1       252-3.55832E-08 1.06274E-03 9.26453E-09
 -1       253 3.43497E-07 7.32790E-04 1.57861E-08
 -1       254-1.49689E-08 1.18643E-03 6.13785E-05
 -1       255-5.10587E-09 8.44531E-04 5.59914E-09
 -1       256-8.33550E-09 4.65963E-04-1.28378E-04
 -1       257 2.03893E-08 5.55129E-04 1.20736E-08
 -1       258-1.52766E-08 4.67101E-04 5.65426E-09
 -1       259-3.48104E-08 5.55152E-04 1.82364E-08
 -1       260-1.44689E-08 4.66009E-04 1.28369E-04
 -1       261-7.84344E-10 2.01219E-04-4.76860E-10
 -3
    1PSTEP                         5           5           1          
  100CL  105 2.50000E-02          81                     1    5           1
 -4  DISP        4    1
 -5  D1          1    2    1    0
 -5  D2          1    2    2    0
 -5  D3          1    2    3    0
 -5  ALL         1    2    0    0    1ALL
 -1         5 0.00000E+00 0.00000E+00 0.00000E+00
 -1         6 0.00000E+00 0.00000E+00 0.00000E+00
 -1         7 0.00000E+00 0.00000E+00 0.00000E+00
 -1         8 0.00000E+00 0.00000E+00 0.00000E+00
 -1        21 0.00000E+00 0.00000E+00 0.00000E+00
 -1        22 0.00000E+00 0.00000E+00 0.00000E+00
 -1        23 0.00000E+00 0.00000E+00 0.00000E+00
 -1        24 0.00000E+00 0.00000E+00 0.00000E+00
 -1        25 0.00000E+00 0.00000E+00 0.00000E+00
 -1        26 0.00000E+00 0.00000E+00 0.00000E+00
 -1        27 0.00000E+00 0.00000E+00 0.00000E+00
 -1        28 0.00000E+00 0.00000E+00 0.00000E+00
 -1        29 0.00000E+00 0.00000E+00 0.00000E+00
 -1        30 0.00000E+00 0.00000E+00 0.00000E+00
 -1        31 0.00000E+00 0.00000E+00 0.00000E+00
 -1        32 0.00000E+00 0.00000E+00 0.00000E+00
 -1        44 1.94340E-04-6.33941E-04 1.17467E-04
 -1        45 5.63459E-05-5.49290E-04 1.47396E-04
 -1        46-4.86878E-05-4.05371E-04 1.78033E-04
 -1        47 3.16640E-05-1.75171E-04 1.16245E-04
 -1        48-3.16693E-05-1.75173E-04 1.16261E-04
 -1        49 4.86864E-05-4.05342E-04 1.78039E-04
 -1        50-5.63659E-05-5.49316E-04 1.47408E-04
 -1        51-1.94374E-04-6.33851E-04 1.17427E-04
 -1        74-1.92739E-04-6.35406E-04-1.17472E-04
 -1        75-5.54590E-05-5.50113E-04-1.47409E-04
 -1        76 4.80623E-05-4.04807E-04-1.78051E-04
 -1        77-3.19236E-05-1.74928E-04-1.16246E-04
 -1        89 1.92756E-04-6.35336E-04-1.17441E-04
 -1        90 5.54684E-05-5.50134E-04-1.47420E-04
 -1        91-4.80658E-05-4.04779E-04-1.78051E-04
 -1        92 3.19267E-05-1.74930E-04-1.16258E-04
 -1        98 0.00000E+00 0.00000E+00 0.00000E+00
 -1        99 0.00000E+00 0.00000E+00 0.00000E+00
 -1       100 0.00000E+00 0.00000E+00 0.00000E+00
 -1       101 0.00000E+00 0.00000E+00 0.00000E+00
 -1       102 0.00000E+00 0.00000E+00 0.00000E+00
 -1       124-1.31764E-05-7.07711E-04 1.08924E-04
 -1       125-3.64036E-08-8.88458E-04 1.13721E-04
 -1       126 1.31255E-05-7.07753E-04 1.08924E-04
 -1       127-2.09235E-09-6.15731E-04 2.05735E-04
 -1       128 2.91676E-06-4.12730E-04 2.06728E-04
 -1       129-6.05899E-09-3.82928E-04 2.19090E-04
 -1       130-2.92397E-06-4.12745E-04 2.06729E-04
 -1       131-1.17832E-09-1.67109E-04 1.08961E-04
 -1       153-1.39327E-04-8.35022E-04 4.86511E-05
 -1       154 3.98878E-07-8.83997E-04 9.12621E-09
 -1       155 1.38729E-04-8.34709E-04-4.86545E-05
 -1       156 4.72628E-09-6.74626E-04-7.05542E-08
 -1       157 2.92810E-05-3.53117E-04 8.02218E-05
 -1       158 3.00927E-09-3.40652E-04-1.87656E-08
 -1       159-2.91461E-05-3.53092E-04-8.02010E-05
 -1       160-2.03636E-08-1.17216E-04-1.66346E-08
 -1       182-1.34084E-05-7.07316E-04-1.08933E-04
 -1       183 2.95933E-08-8.88884E-04-1.13686E-04
 -1       184 1.34452E-05-7.07281E-04-1.08938E-04
 -1       185-2.63224E-09-6.15604E-04-2.05570E-04
 -1       186 2.87779E-06-4.12851E-04-2.06749E-04
 -1       187 3.24154E-09-3.83020E-04-2.19042E-04
 -1       188-2.87610E-06-4.12837E-04-2.06745E-04
 -1       189 2.46428E-10-1.67119E-04-1.08928E-04
 -1       211-1.38695E-04-8.34714E-04-4.86953E-05
 -1       212-3.92807E-07-8.84067E-04-1.79448E-09
 -1       213 1.39291E-04-8.35018E-04 4.86916E-05
 -1       214-1.32837E-08-6.74584E-04-7.06304E-08
 -1       215 2.91404E-05-3.53090E-04-8.01901E-05
 -1       216-3.02972E-09-3.40678E-04-1.62460E-08
 -1       217-2.92781E-05-3.53114E-04 8.02126E-05
 -1       218 1.86910E-08-1.17210E-04-1.35467E-08
 -1       250-2.09960E-08-8.96220E-04 4.63423E-05
 -1       251-4.97025E-07-5.53015E-04 1.96237E-09
 -1       252-5.90466E-09-8.03227E-04-2.16845E-08
 -1       253 4.92904E-07-5.52968E-04-4.96610E-10
 -1       254 1.13894E-08-8.97067E-04-4.63317E-05
 -1       255-8.87088E-10-6.37661E-04 1.48870E-09
 -1       256-4.83216E-09-3.51863E-04 9.68639E-05
 -1       257 6.67217E-08-4.18978E-04 1.16855E-08
 -1       258-3.07176E-09-3.52592E-04 6.08862E-09
 -1       259-6.96515E-08-4.18967E-04 1.22724E-08
 -1       260 3.09231E-10-3.51761E-04-9.68827E-05
 -1       261-2.54439E-10-1.51821E-04 2.35535E-09
 -3
    1PSTEP                         6           6           1          
  100CL  106 3.00000E-02          81                     1    6           1
 -4  DISP        4    1
 -5  D1          1    2    1    0
 -5  D2          1    2    2    0
 -5  D3          1    2    3    0
 -5  ALL         1    2    0    0    1ALL
 -1         5 0.00000E+00 0.00000E+00 0.00000E+00
 -1         6 0.00000E+00 0.00000E+00 0.00000E+00
 -1         7 0.00000E+00 0.00000E+00 0.00000E+00
 -1         8 0.00000E+00 0.00000E+00 0.00000E+00
 -1        21 0.00000E+00 0.00000E+00 0.00000E+00
 -1        22 0.00000E+00 0.00000E+00 0.00000E+00
 -1        23 0.00000E+00 0.00000E+00 0.00000E+00
 -1        24 0.00000E+00 0.00000E+00 0.00000E+00
 -1        25 0.00000E+00 0.00000E+00 0.00000E+00
 -1        26 0.00000E+00 0.00000E+00 0.00000E+00
 -1        27 0.00000E+00 0.00000E+00 0.00000E+00
 -1        28 0.00000E+00 0.00000E+00 0.00000E+00
 -1        29 0.00000E+00 0.00000E+00 0.00000E+00
 -1        30 0.00000E+00 0.00000E+00 0.00000E+00
 -1        31 0.00000E+00 0.00000E+00 0.00000E+00
 -1        32 0.00000E+00 0.00000E+00 0.00000E+00
 -1        44-1.40489E-04 4.60325E-04-8.51471E-05
 -1        45-4.03463E-05 3.98844E-04-1.06825E-04
 -1        46 3.50573E-05 2.93579E-04-1.28954E-04
 -1        47-2.30838E-05 1.26925E-04-8.43466E-05