
 displacements (vx,vy,vz) for set NALL and time  0.5000000E-02

         5  0.000000E+00  0.000000E+00  0.000000E+00
         6  0.000000E+00  0.000000E+00  0.000000E+00
         7  0.000000E+00  0.000000E+00  0.000000E+00
         8  0.000000E+00  0.000000E+00  0.000000E+00
        21  0.000000E+00  0.000000E+00  0.000000E+00
        22  0.000000E+00  0.000000E+00  0.000000E+00
        23  0.000000E+00  0.000000E+00  0.000000E+00
        24  0.000000E+00  0.000000E+00  0.000000E+00
        25  0.000000E+00  0.000000E+00  0.000000E+00
        26  0.000000E+00  0.000000E+00  0.000000E+00
        27  0.000000E+00  0.000000E+00  0.000000E+00
        28  0.000000E+00  0.000000E+00  0.000000E+00
        29  0.000000E+00  0.000000E+00  0.000000E+00
        30  0.000000E+00  0.000000E+00  0.000000E+00
        31  0.000000E+00  0.000000E+00  0.000000E+00
        32  0.000000E+00  0.000000E+00  0.000000E+00
        44  6.813923E-04 -2.796263E-03  4.786255E-04
        45  3.289267E-04 -2.300426E-03  6.585876E-04
        46 -2.205134E-04 -1.763371E-03  8.540685E-04
        47  1.248374E-04 -7.036177E-04  4.609247E-04
        48 -1.248358E-04 -7.036130E-04  4.609198E-04
        49  2.205345E-04 -1.763362E-03  8.540504E-04
        50 -3.288932E-04 -2.300424E-03  6.585513E-04
        51 -6.812772E-04 -2.796240E-03  4.785430E-04
        74 -2.537809E-04 -3.956500E-03 -5.364570E-04
        75  1.802691E-05 -2.829924E-03 -6.709865E-04
        76  2.554023E-05 -1.509165E-03 -8.659499E-04
        77 -2.237272E-04 -5.279204E-04 -4.701366E-04
        89  2.538958E-04 -3.956523E-03 -5.365394E-04
        90 -1.799310E-05 -2.829925E-03 -6.710229E-04
        91 -2.551936E-05 -1.509173E-03 -8.659679E-04
        92  2.237289E-04 -5.279252E-04 -4.701416E-04
        98  0.000000E+00  0.000000E+00  0.000000E+00
        99  0.000000E+00  0.000000E+00  0.000000E+00
       100  0.000000E+00  0.000000E+00  0.000000E+00
       101  0.000000E+00  0.000000E+00  0.000000E+00
       102  0.000000E+00  0.000000E+00  0.000000E+00
       124 -6.506380E-05 -3.145595E-03  4.455920E-04
       125  3.656745E-08 -3.874609E-03  4.732490E-04
       126  6.515343E-05 -3.145601E-03  4.456135E-04
       127  2.412053E-08 -2.575169E-03  9.450563E-04
       128  3.514898E-05 -1.801144E-03  9.133426E-04
       129  3.048683E-09 -1.698590E-03  9.457065E-04
       130 -3.513559E-05 -1.801149E-03  9.133563E-04
       131  4.508894E-11 -6.856265E-04  4.665930E-04
       153 -3.559359E-04 -3.241343E-03  1.795921E-04
       154 -8.416373E-05 -2.914255E-03 -3.126307E-05
       155  3.072019E-04 -3.631089E-03 -2.397245E-04
       156 -1.206114E-04 -2.888210E-03 -7.942673E-05
       157  7.734029E-05 -1.462937E-03  3.710531E-04
       158  8.903798E-05 -1.374431E-03 -2.882706E-05
       159 -3.197622E-05 -1.394779E-03 -3.903866E-04
       160  3.878457E-05 -5.339232E-04  1.364765E-06
       182  2.777130E-05 -2.665882E-03 -4.970108E-04
       183  3.673081E-08 -4.747425E-03 -5.028327E-04
       184 -2.768169E-05 -2.665888E-03 -4.970326E-04
       185  2.400096E-08 -2.855467E-03 -9.179203E-04
       186 -2.261635E-05 -2.027733E-03 -9.641571E-04
       187  3.138996E-09 -1.701930E-03 -9.813340E-04
       188  2.262976E-05 -2.027738E-03 -9.641708E-04
       189  3.640189E-11 -6.587058E-04 -4.681702E-04
       211 -3.070772E-04 -3.631098E-03 -2.397949E-04
       212  8.429207E-05 -2.914255E-03 -3.133609E-05
       213  3.560610E-04 -3.241335E-03  1.795215E-04
       214  1.206455E-04 -2.888210E-03 -7.946383E-05
       215  3.199970E-05 -1.394784E-03 -3.904072E-04
       216 -8.901265E-05 -1.374430E-03 -2.884629E-05
       217 -7.731677E-05 -1.462933E-03  3.710325E-04
       218 -3.878091E-05 -5.339232E-04  1.362366E-06
       250  3.560797E-08 -4.094310E-03  1.605001E-04
       251  5.327485E-05 -2.510098E-03 -2.266177E-05
       252  3.513640E-08 -3.458095E-03 -2.051666E-05
       253 -5.318093E-05 -2.510098E-03 -2.265318E-05
       254  3.580147E-08 -4.428435E-03 -2.475777E-04
       255  2.669032E-08 -2.631444E-03 -3.504282E-05
       256  3.173519E-09 -1.537391E-03  3.882309E-04
       257 -5.063819E-05 -1.676094E-03 -9.757589E-06
       258  2.533576E-09 -1.625234E-03 -1.717002E-05
       259  5.065318E-05 -1.676094E-03 -9.741573E-06
       260  3.195398E-09 -1.558653E-03 -4.241913E-04
       261  1.733253E-09 -6.584645E-04 -3.569521E-06

 forces (fx,fy,fz) for set NALL and time  0.5000000E-02

         5  6.309552E+00  2.305776E+00 -2.461599E+00
         6 -6.309673E+00  2.305850E+00 -2.461718E+00
         7  7.593879E+00  7.748103E+00  2.644858E+00
         8 -7.593999E+00  7.748175E+00  2.644977E+00
        21 -6.205263E+00  6.688191E+00 -1.738792E+01
        22  1.525463E-05  1.078494E+00 -1.537296E+00
        23  6.205386E+00  6.688396E+00 -1.738794E+01
        24 -3.028975E+00  4.720716E+00 -9.143251E+00
        25  3.377917E-01  4.384397E-01 -6.274736E-01
        26  1.148455E+00  1.092017E+00  9.593558E+00
        27 -5.888610E+00  4.748848E-01  1.721709E+01
        28  1.339646E-05  9.870949E+00  2.610408E+00
        29  5.888735E+00  4.750890E-01  1.721711E+01
        30 -1.148795E+00  1.092005E+00  9.593796E+00
        31 -3.380306E-01  4.384396E-01 -6.271989E-01
        32  3.028633E+00  4.720730E+00 -9.143012E+00
        44  2.270006E+01  2.498487E+01  2.271935E+00
        45 -4.543393E-06 -6.080499E-01  1.525585E-01
        46  3.668636E-06  1.541482E+00 -4.634085E-01
        47 -1.345266E-06 -1.167014E+00  5.403029E-01
        48  1.634065E-06 -1.167012E+00  5.403035E-01
        49 -3.325040E-06  1.541483E+00 -4.634086E-01
        50  3.294568E-06 -6.080525E-01  1.525580E-01
        51 -2.269962E+01  2.498512E+01  2.271489E+00
        74 -2.693698E+01 -9.428019E+00 -1.721480E+00
        75  4.104391E-06 -6.081098E-01 -1.525403E-01
        76 -3.939030E-06  1.541525E+00  4.634028E-01
        77  4.759221E-06 -1.167021E+00 -5.403011E-01
        89  2.693743E+01 -9.428263E+00 -1.721924E+00
        90 -6.057975E-06 -6.081062E-01 -1.525406E-01
        91  4.139108E-06  1.541524E+00  4.634032E-01
        92 -4.221122E-06 -1.167023E+00 -5.403010E-01
        98  2.718949E-04  1.879610E+01 -1.532649E+01
        99 -5.573821E-01 -1.158486E+01  7.087010E-01
       100  1.144201E-04 -3.736624E+00 -4.590508E-01
       101  5.575304E-01 -1.158486E+01  7.087775E-01
       102  2.689712E-04  1.611815E+01  1.458548E+01
       124  3.440925E+01  2.455752E+01 -8.551663E-01
       125  2.553825E-04  6.811475E+01  4.456378E+00
       126 -3.440996E+01  2.455743E+01 -8.556589E-01
       127 -6.579260E-08 -1.216101E+00  3.051108E-01
       128  2.815462E-06 -2.615790E+00  9.358608E-01
       129 -7.449663E-09  3.082965E+00 -9.268148E-01
       130 -3.303781E-06 -2.615788E+00  9.358602E-01
       131  3.848615E-07 -2.334026E+00  1.080604E+00
       153 -1.127102E+01 -8.204440E+01 -3.287946E+00
       154  1.936167E+00  4.296037E+01  5.230719E-01
       155  2.270451E+01 -5.985174E+01  2.435029E+00
       156 -5.943098E-06 -1.216154E+00 -1.805480E-05
       157 -5.062172E-06 -2.615795E+00  7.018889E-01
       158  1.866169E-06  3.083006E+00  8.377886E-06
       159  3.107961E-06 -2.615838E+00 -7.018921E-01
       160 -2.140973E-07 -2.334038E+00 -2.102555E-06
       182  2.686266E+01  7.311415E+01  4.363311E-01
       183  2.606984E-04  3.142667E+00 -2.548873E+00
       184 -2.686338E+01  7.311406E+01  4.368193E-01
       185  7.577603E-07 -6.742546E+00 -3.050714E-01
       186  4.957072E-06 -8.142166E+00 -9.358423E-01
       187 -3.722242E-07 -2.443262E+00  9.268059E-01
       188 -5.247237E-06 -8.142164E+00 -9.358423E-01
       189  3.634221E-07 -7.860367E+00 -1.080596E+00
       211 -2.270411E+01 -5.985162E+01  2.434981E+00
       212 -1.935189E+00  4.296036E+01  5.221698E-01
       213  1.127142E+01 -8.204452E+01 -3.287996E+00
       214  5.057518E-06 -1.216154E+00 -1.639088E-05
       215 -4.058609E-06 -2.615836E+00 -7.018923E-01
       216 -1.264229E-06  3.083006E+00  7.871611E-06
       217  4.261715E-06 -2.615796E+00  7.018891E-01
       218 -2.182286E-07 -2.334038E+00 -3.251955E-06
       250 -3.666668E-04 -2.206760E+02 -7.980586E+00
       251  1.005098E+01  1.022454E+02 -7.885206E-02
       252  4.957819E-04  1.161542E+02  1.655075E+00
       253 -1.005242E+01  1.022454E+02 -8.038024E-02
       254 -3.583820E-04 -1.924837E+02  4.013779E+00
       255  2.323309E-06 -2.432316E+00 -4.117451E-05
       256  2.824017E-07 -5.231590E+00  1.403771E+00
       257  3.594748E-06 -5.231633E+00 -1.834907E-05
       258 -4.326544E-07  6.166017E+00  1.553101E-05
       259 -3.087054E-06 -5.231633E+00 -1.821984E-05
       260  1.174380E-06 -5.231688E+00 -1.403777E+00
       261 -6.127683E-07 -4.668081E+00 -5.742869E-06

 displacements (vx,vy,vz) for set NALL and time  0.1000000E-01

         5  0.000000E+00  0.000000E+00  0.000000E+00
         6  0.000000E+00  0.000000E+00  0.000000E+00
         7  0.000000E+00  0.000000E+00  0.000000E+00
         8  0.000000E+00  0.000000E+00  0.000000E+00
        21  0.000000E+00  0.000000E+00  0.000000E+00
        22  0.000000E+00  0.000000E+00  0.000000E+00
        23  0.000000E+00  0.000000E+00  0.000000E+00
        24  0.000000E+00  0.000000E+00  0.000000E+00
        25  0.000000E+00  0.000000E+00  0.000000E+00
        26  0.000000E+00  0.000000E+00  0.000000E+00
        27  0.000000E+00  0.000000E+00  0.000000E+00
        28  0.000000E+00  0.000000E+00  0.000000E+00
        29  0.000000E+00  0.000000E+00  0.000000E+00
        30  0.000000E+00  0.000000E+00  0.000000E+00
        31  0.000000E+00  0.000000E+00  0.000000E+00
        32  0.000000E+00  0.000000E+00  0.000000E+00
        44 -4.193955E-04  1.365899E-03 -2.530174E-04
        45 -1.220663E-04  1.182652E-03 -3.178073E-04
        46  1.051418E-04  8.736659E-04 -3.837093E-04
        47 -6.798709E-05  3.773943E-04 -2.504307E-04
        48  6.797653E-05  3.773934E-04 -2.504079E-04
        49 -1.051456E-04  8.736603E-04 -3.836911E-04
        50  1.219585E-04  1.182709E-03 -3.177965E-04
        51  4.193323E-04  1.365903E-03 -2.529568E-04
        74  4.168238E-04  1.371022E-03  2.532962E-04
        75  1.201300E-04  1.185166E-03  3.180354E-04
        76 -1.040198E-04  8.724230E-04  3.837547E-04
        77  6.854277E-05  3.765617E-04  2.504289E-04
        89 -4.169473E-04  1.370976E-03  2.533649E-04
        90 -1.201446E-04  1.185172E-03  3.180323E-04
        91  1.040222E-04  8.724552E-04  3.837682E-04
        92 -6.853558E-05  3.765762E-04  2.504396E-04
        98  0.000000E+00  0.000000E+00  0.000000E+00
        99  0.000000E+00  0.000000E+00  0.000000E+00
       100  0.000000E+00  0.000000E+00  0.000000E+00
       101  0.000000E+00  0.000000E+00  0.000000E+00
       102  0.000000E+00  0.000000E+00  0.000000E+00
       124  2.847571E-05  1.525104E-03 -2.347051E-04
       125 -8.756682E-08  1.913766E-03 -2.450159E-04
       126 -2.858748E-05  1.525157E-03 -2.348091E-04
       127 -1.127859E-08  1.326820E-03 -4.432273E-04
       128 -6.427699E-06  8.890522E-04 -4.453357E-04
       129 -3.405163E-08  8.245323E-04 -4.719369E-04
       130  6.389771E-06  8.890442E-04 -4.453270E-04
       131 -7.655724E-10  3.597607E-04 -2.346224E-04
       153  3.001265E-04  1.799144E-03 -1.047630E-04
       154  7.915344E-08  1.903225E-03  3.051402E-07
       155 -2.994779E-04  1.800287E-03  1.050676E-04
       156  4.060326E-07  1.452210E-03  4.054768E-07
       157 -6.308601E-05  7.610777E-04 -1.727541E-04
       158 -3.607275E-07  7.346276E-04  1.040540E-07
       159  6.276247E-05  7.608602E-04  1.728282E-04
       160 -1.400178E-07  2.527242E-04 -8.241877E-09
       182  2.856924E-05  1.522982E-03  2.348798E-04
       183 -2.523953E-08  1.917148E-03  2.451698E-04
       184 -2.864070E-05  1.522981E-03  2.348827E-04
       185 -1.522943E-08  1.327873E-03  4.429986E-04
       186 -6.218208E-06  8.900880E-04  4.456064E-04
       187  3.934551E-09  8.248409E-04  4.721111E-04
       188  6.220075E-06  8.900984E-04  4.456210E-04
       189  5.406108E-09  3.597372E-04  2.346481E-04
       211  2.993980E-04  1.800239E-03  1.051246E-04
       212 -1.526959E-07  1.903229E-03  2.673919E-07
       213 -3.001644E-04  1.799183E-03 -1.047425E-04
       214 -4.316893E-07  1.452226E-03  4.315118E-07
       215 -6.277908E-05  7.608944E-04  1.728361E-04
       216  3.345885E-07  7.346513E-04  1.299474E-07
       217  6.306480E-05  7.610796E-04 -1.727317E-04
       218  1.363722E-07  2.527319E-04 -8.611868E-09
       250 -5.486462E-08  1.928826E-03 -9.961142E-05
       251  1.367514E-07  1.192612E-03  7.817840E-08
       252  3.042095E-09  1.726696E-03  5.151394E-08
       253 -1.714096E-07  1.192607E-03  1.216197E-07
       254 -1.371407E-08  1.930647E-03  1.002523E-04
       255 -1.979022E-08  1.373158E-03  1.504977E-07
       256 -1.489195E-08  7.578763E-04 -2.086945E-04
       257  1.405350E-07  9.021533E-04  6.814698E-08
       258 -8.168164E-10  7.598159E-04  9.721220E-08
       259 -1.526114E-07  9.021423E-04  5.009962E-08
       260  2.076802E-09  7.579873E-04  2.088303E-04
       261 -5.746401E-09  3.272517E-04  1.669170E-08

 forces (fx,fy,fz) for set NALL and time  0.1000000E-01

         5 -3.757070E+00 -2.997647E+00  1.613855E+00
         6  3.757135E+00 -2.997812E+00  1.613624E+00
         7 -3.755711E+00 -3.021129E+00 -1.614764E+00
         8  3.755962E+00 -3.021428E+00 -1.614776E+00
        21  3.031789E+00 -1.702458E+00  8.773407E+00
        22  5.792402E-04 -5.151893E+00  2.044599E+00
        23 -3.032450E+00 -1.702763E+00  8.773791E+00
        24  3.344269E-01  6.782006E-01  4.251894E+00
        25  7.342673E-04 -4.132305E+00  2.695931E-03
        26 -3.314537E-01  6.955380E-01 -4.253835E+00
        27  3.021774E+00 -1.678013E+00 -8.771710E+00
        28  1.699997E-04 -5.187790E+00 -2.050465E+00
        29 -3.022186E+00 -1.678406E+00 -8.771682E+00
        30  3.317808E-01  6.962308E-01 -4.254292E+00
        31 -6.696517E-04 -4.132491E+00  2.691190E-03
        32 -3.345359E-01  6.775983E-01  4.251712E+00
        44 -1.672489E+01 -1.266232E+00 -1.010831E+00
        45  3.882442E-06  5.208456E-01 -1.306792E-01
        46 -3.145896E-06 -1.320409E+00  3.969484E-01
        47  1.168909E-06  9.996455E-01 -4.628150E-01
        48 -1.416289E-06  9.996445E-01 -4.628155E-01
        49  2.851570E-06 -1.320410E+00  3.969485E-01
        50 -2.812709E-06  5.208478E-01 -1.306787E-01
        51  1.672475E+01 -1.267219E+00 -1.011790E+00
        74  1.670037E+01 -1.118261E+00  1.011462E+00
        75 -3.499793E-06  5.208969E-01  1.306636E-01
        76  3.373829E-06 -1.320446E+00 -3.969435E-01
        77 -4.093835E-06  9.996517E-01  4.628134E-01
        89 -1.670127E+01 -1.117105E+00  1.011493E+00
        90  5.173210E-06  5.208938E-01  1.306638E-01
        91 -3.545218E-06 -1.320445E+00 -3.969438E-01
        92  3.632908E-06  9.996535E-01  4.628133E-01
        98  2.490750E-04 -2.576567E+00  6.969380E+00
        99  1.654087E-03  5.152105E+00 -2.444179E-03
       100 -5.294809E-04 -5.499806E+00  1.834997E-03
       101 -1.254506E-03  5.151953E+00 -2.278390E-03
       102 -3.333057E-04 -2.566879E+00 -6.968220E+00
       124 -1.751193E+01 -2.156461E+01  3.821636E-01
       125 -9.389375E-04 -6.587552E+00 -1.818377E+00
       126  1.751282E+01 -2.156303E+01  3.795208E-01
       127  5.636616E-08  1.041692E+00 -2.613529E-01
       128 -2.419708E-06  2.240644E+00 -8.016435E-01
       129  6.374189E-09 -2.640818E+00  7.938949E-01
       130  2.838003E-06  2.240643E+00 -8.016431E-01
       131 -3.296656E-07  1.999290E+00 -9.256288E-01
       153  1.431068E+01  2.623625E+01  1.478811E+00
       154 -2.140798E-02 -4.101992E+00  1.239315E-03
       155 -1.432213E+01  2.612296E+01 -1.477762E+00
       156  5.082192E-06  1.041737E+00  1.545395E-05
       157  4.343142E-06  2.240648E+00 -6.012270E-01
       158 -1.597699E-06 -2.640854E+00 -7.169066E-06
       159 -2.664891E-06  2.240685E+00  6.012296E-01
       160  1.882768E-07  1.999300E+00  1.801038E-06
       182 -1.742708E+01 -2.175856E+01 -3.849558E-01
       183 -8.298408E-04 -6.334530E+00  1.810962E+00
       184  1.742885E+01 -2.175777E+01 -3.854760E-01
       185 -6.490778E-07  1.069504E+00  2.613192E-01
       186 -4.250201E-06  2.268397E+00  8.016277E-01
       187  3.188355E-07 -2.613194E+00 -7.938873E-01
       188  4.498758E-06  2.268395E+00  8.016277E-01
       189 -3.113015E-07  2.027013E+00  9.256220E-01
       211  1.432181E+01  2.611926E+01 -1.476330E+00
       212  2.176939E-02 -4.102054E+00  1.846477E-05
       213 -1.431061E+01  2.624011E+01  1.479944E+00
       214 -4.323602E-06  1.041738E+00  1.402866E-05
       215  3.479208E-06  2.240684E+00  6.012299E-01
       216  1.082074E-06 -2.640854E+00 -6.735392E-06
       217 -3.657474E-06  2.240650E+00 -6.012271E-01
       218  1.820486E-07  1.999300E+00  2.785593E-06
       250 -5.139228E-04  6.521179E+01  3.211227E+00
       251 -3.179665E-02 -5.334596E+01 -6.280136E-03
       252  1.283666E-03 -2.001702E+01 -9.103628E-03
       253  3.048103E-02 -5.334564E+01 -4.213745E-03
       254  5.160795E-04  6.512223E+01 -3.176740E+00
       255 -1.990093E-06  2.083482E+00  3.525024E-05
       256 -2.418925E-07  4.481297E+00 -1.202448E+00
       257 -3.082387E-06  4.481334E+00  1.570754E-05
       258  3.705921E-07 -5.281712E+00 -1.328922E-05
       259  2.647519E-06  4.481334E+00  1.559685E-05
       260 -1.005949E-06  4.481381E+00  1.202453E+00
       261  5.248892E-07  3.998604E+00  4.918503E-06

 displacements (vx,vy,vz) for set NALL and time  0.1500000E-01

         5  0.000000E+00  0.000000E+00  0.000000E+00
         6  0.000000E+00  0.000000E+00  0.000000E+00
         7  0.000000E+00  0.000000E+00  0.000000E+00
         8  0.000000E+00  0.000000E+00  0.000000E+00
        21  0.000000E+00  0.000000E+00  0.000000E+00
        22  0.000000E+00  0.000000E+00  0.000000E+00
        23  0.000000E+00  0.000000E+00  0.000000E+00
        24  0.000000E+00  0.000000E+00  0.000000E+00
        25  0.000000E+00  0.000000E+00  0.000000E+00
        26  0.000000E+00  0.000000E+00  0.000000E+00
        27  0.000000E+00  0.000000E+00  0.000000E+00
        28  0.000000E+00  0.000000E+00  0.000000E+00
        29  0.000000E+00  0.000000E+00  0.000000E+00
        30  0.000000E+00  0.000000E+00  0.000000E+00
        31  0.000000E+00  0.000000E+00  0.000000E+00
        32  0.000000E+00  0.000000E+00  0.000000E+00
        44  3.342117E-04 -1.080379E-03  2.004765E-04
        45  9.728668E-05 -9.365543E-04  2.516563E-04
        46 -8.348639E-05 -6.921524E-04  3.037764E-04
        47  5.371444E-05 -2.992738E-04  1.984707E-04
        48 -5.371349E-05 -2.992658E-04  1.984622E-04
        49  8.348129E-05 -6.921399E-04  3.037726E-04
        50 -9.725869E-05 -9.365540E-04  2.516436E-04
        51 -3.341723E-04 -1.080388E-03  2.004440E-04
        74 -3.290809E-04 -1.085789E-03 -2.004601E-04
        75 -9.437831E-05 -9.395312E-04 -2.516206E-04
        76  8.225578E-05 -6.908580E-04 -3.037643E-04
        77 -5.450487E-05 -2.984425E-04 -1.984694E-04
        89  3.291340E-04 -1.085771E-03 -2.004841E-04
        90  9.442667E-05 -9.395108E-04 -2.516237E-04
        91 -8.224494E-05 -6.908594E-04 -3.037780E-04
        92  5.450914E-05 -2.984441E-04 -1.984793E-04
        98  0.000000E+00  0.000000E+00  0.000000E+00
        99  0.000000E+00  0.000000E+00  0.000000E+00
       100  0.000000E+00  0.000000E+00  0.000000E+00
       101  0.000000E+00  0.000000E+00  0.000000E+00
       102  0.000000E+00  0.000000E+00  0.000000E+00
       124 -2.525419E-05 -1.208292E-03  1.858929E-04
       125  3.580363E-08 -1.516012E-03  1.940648E-04
       126  2.530538E-05 -1.208305E-03  1.859019E-04
       127  6.569096E-09 -1.051377E-03  3.512632E-04
       128  5.558341E-06 -7.042620E-04  3.527831E-04
       129  7.130652E-09 -6.533989E-04  3.739810E-04
       130 -5.553056E-06 -7.042641E-04  3.527869E-04
       131 -2.298211E-09 -2.851070E-04  1.859289E-04
       153 -2.388417E-04 -1.423168E-03  8.307091E-05
       154  9.220528E-07 -1.509540E-03 -7.597058E-09
       155  2.371931E-04 -1.428310E-03 -8.306877E-05
       156 -8.157324E-08 -1.150943E-03 -2.806800E-07
       157  5.023189E-05 -6.034458E-04  1.368753E-04
       158 -1.164755E-07 -5.819243E-04 -6.053780E-08
       159 -4.983187E-05 -6.022622E-04 -1.367889E-04
       160  1.551053E-08 -2.001063E-04 -8.281151E-09
       182 -2.022288E-05 -1.206395E-03 -1.859125E-04
       183  3.216289E-08 -1.518363E-03 -1.940602E-04
       184  2.027777E-05 -1.206402E-03 -1.859532E-04
       185  1.315635E-08 -1.051427E-03 -3.507352E-04
       186  4.396773E-06 -7.047261E-04 -3.528722E-04
       187  1.186957E-08 -6.530443E-04 -3.738779E-04
       188 -4.378495E-06 -7.047237E-04 -3.528719E-04
       189  1.080406E-09 -2.850714E-04 -1.859076E-04
       211 -2.371536E-04 -1.428280E-03 -8.308781E-05
       212 -8.704143E-07 -1.509525E-03 -7.652195E-09
       213  2.388775E-04 -1.423179E-03  8.305311E-05
       214  1.023316E-07 -1.150935E-03 -2.989846E-07
       215  4.984877E-05 -6.022616E-04 -1.368027E-04
       216  1.337550E-07 -5.819157E-04 -7.536204E-08
       217 -5.022342E-05 -6.034320E-04  1.368670E-04
       218 -1.235008E-08 -2.001035E-04 -9.843585E-09
       250  2.427800E-08 -1.530694E-03  7.909432E-05
       251  1.507637E-06 -9.442021E-04  1.869158E-08
       252  5.115150E-09 -1.369277E-03 -5.733320E-09
       253 -1.476719E-06 -9.442110E-04  1.047294E-08
       254  2.153042E-08 -1.527942E-03 -7.912620E-05
       255  1.299051E-08 -1.088154E-03 -1.353539E-08
       256  4.295917E-09 -6.000200E-04  1.653488E-04
       257 -3.527744E-07 -7.151094E-04  2.617682E-08
       258  2.770230E-09 -6.018081E-04 -5.379557E-09
       259  3.633787E-07 -7.151136E-04  3.523791E-08
       260  6.713801E-09 -6.006917E-04 -1.654339E-04
       261  3.258877E-09 -2.592277E-04  7.189336E-11

 forces (fx,fy,fz) for set NALL and time  0.1500000E-01

         5  2.978070E+00  2.391422E+00 -1.281998E+00
         6 -2.978069E+00  2.391464E+00 -1.281999E+00
         7  2.977481E+00  2.395595E+00  1.282127E+00
         8 -2.977602E+00  2.395735E+00  1.282052E+00
        21 -2.394760E+00  1.339312E+00 -6.951220E+00
        22 -1.654672E-04  4.090434E+00 -1.623864E+00
        23  2.394977E+00  1.339484E+00 -6.951266E+00
        24 -2.539736E-01 -5.648294E-01 -3.365288E+00
        25 -1.648168E-02  3.305898E+00 -2.887587E-03
        26  2.651658E-01 -5.584151E-01  3.368612E+00
        27 -2.403750E+00  1.324043E+00  6.947827E+00
        28 -2.084981E-04  4.128042E+00  1.629429E+00
        29  2.404069E+00  1.324174E+00  6.948028E+00
        30 -2.652299E-01 -5.587248E-01  3.368781E+00
        31  1.640178E-02  3.305899E+00 -2.858824E-03
        32  2.539611E-01 -5.645860E-01 -3.365175E+00
        44  1.327161E+01  9.112971E-01  8.021124E-01
        45 -3.067336E-06 -4.142396E-01  1.039320E-01
        46  2.506285E-06  1.050150E+00 -3.157020E-01
        47 -9.596291E-07 -7.950405E-01  3.680872E-01
        48  1.156373E-06 -7.950397E-01  3.680875E-01
        49 -2.272187E-06  1.050151E+00 -3.157020E-01
        50  2.216535E-06 -4.142413E-01  1.039316E-01
        51 -1.327159E+01  9.116657E-01  8.017741E-01
        74 -1.324837E+01  8.671320E-01 -8.018630E-01
        75  2.753726E-06 -4.142804E-01 -1.039195E-01
        76 -2.682394E-06  1.050180E+00  3.156980E-01
        77  3.286713E-06 -7.950454E-01 -3.680859E-01
        89  1.324870E+01  8.665883E-01 -8.012720E-01
        90 -4.084646E-06 -4.142779E-01 -1.039197E-01
        91  2.818714E-06  1.050179E+00  3.156983E-01
        92 -2.920128E-06 -7.950469E-01 -3.680858E-01
        98 -2.585983E-05  2.039704E+00 -5.522720E+00
        99 -2.013946E-02 -4.092537E+00  3.215469E-03
       100  2.113889E-04  4.400706E+00 -1.039137E-04
       101  2.002150E-02 -4.092437E+00  3.058830E-03
       102  8.212539E-06  1.998591E+00  5.516443E+00
       124  1.382676E+01  1.712689E+01 -3.042744E-01
       125  4.873990E-04  5.236894E+00  1.438437E+00
       126 -1.382722E+01  1.712621E+01 -3.048656E-01
       127 -4.484734E-08 -8.284799E-01  2.078596E-01
       128  1.937412E-06 -1.782034E+00  6.375650E-01
       129 -5.055446E-09  2.100301E+00 -6.314023E-01
       130 -2.270109E-06 -1.782033E+00  6.375647E-01
       131  2.621887E-07 -1.590080E+00  7.361734E-01
       153 -1.141894E+01 -2.062514E+01 -1.172493E+00
       154  1.737018E-01  3.084472E+00 -5.756675E-05
       155  1.131101E+01 -2.066168E+01  1.172253E+00
       156 -4.029933E-06 -8.285159E-01 -1.227474E-05
       157 -3.465259E-06 -1.782037E+00  4.781693E-01
       158  1.269512E-06  2.100329E+00  5.691482E-06
       159  2.124469E-06 -1.782067E+00 -4.781714E-01
       160 -1.566001E-07 -1.590088E+00 -1.432438E-06
       182  1.387483E+01  1.726431E+01  3.047477E-01
       183  3.361430E-04  4.857598E+00 -1.437293E+00
       184 -1.387548E+01  1.726390E+01  3.033239E-01
       185  5.162118E-07 -8.300260E-01 -2.078328E-01
       186  3.387663E-06 -1.783533E+00 -6.375524E-01
       187 -2.535663E-07  2.098904E+00  6.313963E-01
       188 -3.585358E-06 -1.783532E+00 -6.375524E-01
       189  2.475847E-07 -1.591556E+00 -7.361680E-01
       211 -1.131094E+01 -2.065992E+01  1.171613E+00
       212 -1.738647E-01  3.084587E+00  2.094168E-04
       213  1.141889E+01 -2.062687E+01 -1.172458E+00
       214  3.426579E-06 -8.285163E-01 -1.114116E-05
       215 -2.772127E-06 -1.782066E+00 -4.781716E-01
       216 -8.593996E-07  2.100329E+00  5.346561E-06
       217  2.919914E-06 -1.782038E+00  4.781694E-01
       218 -1.379319E-07 -1.590088E+00 -2.215474E-06
       250  3.263940E-04 -5.176849E+01 -2.533256E+00
       251  2.242141E-01  4.237517E+01  1.442451E-03
       252 -6.738660E-04  1.563283E+01  3.223959E-04
       253 -2.234858E-01  4.237466E+01  1.006888E-03
       254 -2.724525E-04 -5.131472E+01  2.530397E+00
       255  1.582734E-06 -1.657037E+00 -2.800840E-05
       256  1.923656E-07 -3.564075E+00  9.563335E-01
       257  2.455945E-06 -3.564105E+00 -1.247856E-05
       258 -2.947153E-07  4.200662E+00  1.054903E-05
       259 -2.110115E-06 -3.564105E+00 -1.239054E-05
       260  8.000412E-07 -3.564142E+00 -9.563376E-01
       261 -4.174597E-07 -3.180180E+00 -3.910748E-06

 displacements (vx,vy,vz) for set NALL and time  0.2000000E-01

         5  0.000000E+00  0.000000E+00  0.000000E+00
         6  0.000000E+00  0.000000E+00  0.000000E+00
         7  0.000000E+00  0.000000E+00  0.000000E+00
         8  0.000000E+00  0.000000E+00  0.000000E+00
        21  0.000000E+00  0.000000E+00  0.000000E+00
        22  0.000000E+00  0.000000E+00  0.000000E+00
        23  0.000000E+00  0.000000E+00  0.000000E+00
        24  0.000000E+00  0.000000E+00  0.000000E+00
        25  0.000000E+00  0.000000E+00  0.000000E+00
        26  0.000000E+00  0.000000E+00  0.000000E+00
        27  0.000000E+00  0.000000E+00  0.000000E+00
        28  0.000000E+00  0.000000E+00  0.000000E+00
        29  0.000000E+00  0.000000E+00  0.000000E+00
        30  0.000000E+00  0.000000E+00  0.000000E+00
        31  0.000000E+00  0.000000E+00  0.000000E+00
        32  0.000000E+00  0.000000E+00  0.000000E+00
        44 -2.596398E-04  8.386163E-04 -1.556748E-04
        45 -7.549503E-05  7.270205E-04 -1.954537E-04
        46  6.502565E-05  5.376268E-04 -2.357810E-04
        47 -4.166239E-05  2.324404E-04 -1.541529E-04
        48  4.166905E-05  2.324432E-04 -1.541605E-04
        49 -6.500738E-05  5.376256E-04 -2.357993E-04
        50  7.553694E-05  7.270233E-04 -1.954698E-04
        51  2.596841E-04  8.386122E-04 -1.556754E-04
        74  2.577785E-04  8.409446E-04  1.556781E-04
        75  7.435295E-05  7.282784E-04  1.954882E-04
        76 -6.433164E-05  5.369247E-04  2.357985E-04
        77  4.199510E-05  2.320762E-04  1.541560E-04
        89 -2.577437E-04  8.409518E-04  1.556830E-04
        90 -7.430901E-05  7.282653E-04  1.954658E-04
        91  6.434208E-05  5.369276E-04  2.357804E-04
        92 -4.198824E-05  2.320712E-04  1.541439E-04
        98  0.000000E+00  0.000000E+00  0.000000E+00
        99  0.000000E+00  0.000000E+00  0.000000E+00
       100  0.000000E+00  0.000000E+00  0.000000E+00
       101  0.000000E+00  0.000000E+00  0.000000E+00
       102  0.000000E+00  0.000000E+00  0.000000E+00
       124  1.813232E-05  9.381857E-04 -1.444586E-04
       125  2.475233E-08  1.176759E-03 -1.507934E-04
       126 -1.808344E-05  9.381913E-04 -1.444502E-04
       127  1.936939E-08  8.163903E-04 -2.726556E-04
       128 -4.034167E-06  5.466817E-04 -2.738880E-04
       129  8.991575E-09  5.070584E-04 -2.903666E-04
       130  4.051631E-06  5.466814E-04 -2.738812E-04
       131  2.586299E-09  2.213488E-04 -1.443409E-04
       153  1.857367E-04  1.107008E-03 -6.456456E-05
       154 -3.304747E-07  1.173102E-03  1.066977E-08
       155 -1.850373E-04  1.107940E-03  6.456137E-05
       156  1.148335E-07  8.932382E-04  1.237097E-07
       157 -3.902806E-05  4.684306E-04 -1.061945E-04
       158 -2.498820E-08  4.521538E-04  3.551600E-08
       159  3.889438E-05  4.681495E-04  1.061848E-04
       160 -3.709947E-09  1.553555E-04  1.763218E-08
       182  1.743607E-05  9.373348E-04  1.444506E-04
       183  3.677778E-08  1.177834E-03  1.507821E-04
       184 -1.737950E-05  9.373374E-04  1.444378E-04
       185  1.408152E-08  8.164601E-04  2.724100E-04
       186 -3.770316E-06  5.468783E-04  2.739348E-04
       187  1.087932E-08  5.069456E-04  2.903323E-04
       188  3.785563E-06  5.468797E-04  2.739290E-04
       189  1.552112E-09  2.213059E-04  1.443182E-04
       211  1.850909E-04  1.107933E-03  6.453315E-05
       212  3.938371E-07  1.173088E-03 -2.138148E-08
       213 -1.856827E-04  1.107003E-03 -6.458188E-05
       214 -7.303601E-08  8.932403E-04  1.028007E-07
       215 -3.888005E-05  4.681497E-04  1.061716E-04
       216  4.403277E-08  4.521494E-04  2.014280E-08
       217  3.904698E-05  4.684269E-04 -1.062107E-04
       218  1.150840E-08  1.553552E-04  7.513056E-09
       250  3.111875E-08  1.185947E-03 -6.144835E-05
       251  3.336271E-08  7.332924E-04 -1.638786E-08