    1C
    1UUSER                                                              
    1UDATE              18.july.2018                                    
    1UTIME              00:52:11                                        
    1UHOST                                                              
    1UPGM               CalculiX                                        
    1UVERSION           Version 2.13                             
    1UCOMPILETIME       jue jun 14 00:40:39 CEST 2018                    
    1UDIR                                                               
    1UDBN                                                               
    1UMAT    1EL                                                        
    2C                            81                                     1
 -1         5 0.00000E+00 0.00000E+00 8.00000E+00
 -1         6 1.00000E+00 0.00000E+00 8.00000E+00
 -1         7 1.00000E+00 1.00000E+00 8.00000E+00
 -1         8 0.00000E+00 1.00000E+00 8.00000E+00
 -1        21 2.50000E-01 0.00000E+00 8.00000E+00
 -1        22 5.00000E-01 0.00000E+00 8.00000E+00
 -1        23 7.50000E-01 0.00000E+00 8.00000E+00
 -1        24 1.00000E+00 2.50000E-01 8.00000E+00
 -1        25 1.00000E+00 5.00000E-01 8.00000E+00
 -1        26 1.00000E+00 7.50000E-01 8.00000E+00
 -1        27 7.50000E-01 1.00000E+00 8.00000E+00
 -1        28 5.00000E-01 1.00000E+00 8.00000E+00
 -1        29 2.50000E-01 1.00000E+00 8.00000E+00
 -1        30 0.00000E+00 7.50000E-01 8.00000E+00
 -1        31 0.00000E+00 5.00000E-01 8.00000E+00
 -1        32 0.00000E+00 2.50000E-01 8.00000E+00
 -1        44 1.00000E+00 0.00000E+00 6.00000E+00
 -1        45 1.00000E+00 0.00000E+00 6.50000E+00
 -1        46 1.00000E+00 0.00000E+00 7.00000E+00
 -1        47 1.00000E+00 0.00000E+00 7.50000E+00
 -1        48 0.00000E+00 0.00000E+00 7.50000E+00
 -1        49 0.00000E+00 0.00000E+00 7.00000E+00
 -1        50 0.00000E+00 0.00000E+00 6.50000E+00
 -1        51 0.00000E+00 0.00000E+00 6.00000E+00
 -1        74 1.00000E+00 1.00000E+00 6.00000E+00
 -1        75 1.00000E+00 1.00000E+00 6.50000E+00
 -1        76 1.00000E+00 1.00000E+00 7.00000E+00
 -1        77 1.00000E+00 1.00000E+00 7.50000E+00
 -1        89 0.00000E+00 1.00000E+00 6.00000E+00
 -1        90 0.00000E+00 1.00000E+00 6.50000E+00
 -1        91 0.00000E+00 1.00000E+00 7.00000E+00
 -1        92 0.00000E+00 1.00000E+00 7.50000E+00
 -1        98 5.00000E-01 2.50000E-01 8.00000E+00
 -1        99 2.50000E-01 5.00000E-01 8.00000E+00
 -1       100 5.00000E-01 5.00000E-01 8.00000E+00
 -1       101 7.50000E-01 5.00000E-01 8.00000E+00
 -1       102 5.00000E-01 7.50000E-01 8.00000E+00
 -1       124 2.50000E-01 0.00000E+00 6.00000E+00
 -1       125 5.00000E-01 0.00000E+00 6.00000E+00
 -1       126 7.50000E-01 0.00000E+00 6.00000E+00
 -1       127 5.00000E-01 0.00000E+00 6.50000E+00
 -1       128 2.50000E-01 0.00000E+00 7.00000E+00
 -1       129 5.00000E-01 0.00000E+00 7.00000E+00
 -1       130 7.50000E-01 0.00000E+00 7.00000E+00
 -1       131 5.00000E-01 0.00000E+00 7.50000E+00
 -1       153 1.00000E+00 2.50000E-01 6.00000E+00
 -1       154 1.00000E+00 5.00000E-01 6.00000E+00
 -1       155 1.00000E+00 7.50000E-01 6.00000E+00
 -1       156 1.00000E+00 5.00000E-01 6.50000E+00
 -1       157 1.00000E+00 2.50000E-01 7.00000E+00
 -1       158 1.00000E+00 5.00000E-01 7.00000E+00
 -1       159 1.00000E+00 7.50000E-01 7.00000E+00
 -1       160 1.00000E+00 5.00000E-01 7.50000E+00
 -1       182 7.50000E-01 1.00000E+00 6.00000E+00
 -1       183 5.00000E-01 1.00000E+00 6.00000E+00
 -1       184 2.50000E-01 1.00000E+00 6.00000E+00
 -1       185 5.00000E-01 1.00000E+00 6.50000E+00
 -1       186 7.50000E-01 1.00000E+00 7.00000E+00
 -1       187 5.00000E-01 1.00000E+00 7.00000E+00
 -1       188 2.50000E-01 1.00000E+00 7.00000E+00
 -1       189 5.00000E-01 1.00000E+00 7.50000E+00
 -1       211 0.00000E+00 7.50000E-01 6.00000E+00
 -1       212 0.00000E+00 5.00000E-01 6.00000E+00
 -1       213 0.00000E+00 2.50000E-01 6.00000E+00
 -1       214 0.00000E+00 5.00000E-01 6.50000E+00
 -1       215 0.00000E+00 7.50000E-01 7.00000E+00
 -1       216 0.00000E+00 5.00000E-01 7.00000E+00
 -1       217 0.00000E+00 2.50000E-01 7.00000E+00
 -1       218 0.00000E+00 5.00000E-01 7.50000E+00
 -1       250 5.00000E-01 2.50000E-01 6.00000E+00
 -1       251 2.50000E-01 5.00000E-01 6.00000E+00
 -1       252 5.00000E-01 5.00000E-01 6.00000E+00
 -1       253 7.50000E-01 5.00000E-01 6.00000E+00
 -1       254 5.00000E-01 7.50000E-01 6.00000E+00
 -1       255 5.00000E-01 5.00000E-01 6.50000E+00
 -1       256 5.00000E-01 2.50000E-01 7.00000E+00
 -1       257 2.50000E-01 5.00000E-01 7.00000E+00
 -1       258 5.00000E-01 5.00000E-01 7.00000E+00
 -1       259 7.50000E-01 5.00000E-01 7.00000E+00
 -1       260 5.00000E-01 7.50000E-01 7.00000E+00
 -1       261 5.00000E-01 5.00000E-01 7.50000E+00
 -3
    3C                             8                                     1
 -1        25    4    0    1
 -2        51       125       252       212        49       129       258       216       124       250
 -2       251       213        50       127       255       214       128       256       257       217
 -1        26    4    0    1
 -2       125        44       154       252       129        46       158       258       126       153
 -2       253       250       127        45       156       255       130       157       259       256
 -1        27    4    0    1
 -2       212       252       183        89       216       258       187        91       251       254
 -2       184       211       214       255       185        90       257       260       188       215
 -1        28    4    0    1
 -2       252       154        74       183       258       158        76       187       253       155
 -2       182       254       255       156        75       185       259       159       186       260
 -1        29    4    0    1
 -2        49       129       258       216         5        22       100        31       128       256
 -2       257       217        48       131       261       218        21        98        99        32
 -1        30    4    0    1
 -2       129        46       158       258        22         6        25       100       130       157
 -2       259       256       131        47       160       261        23        24       101        98
 -1        31    4    0    1
 -2       216       258       187        91        31       100        28         8       257       260
 -2       188       215       218       261       189        92        99       102        29        30
 -1        32    4    0    1
 -2       258       158        76       187       100        25         7        28       259       159
 -2       186       260       261       160        77       189       101        26        27       102
 -3
    1PSTEP                         1           1           1          
  100CL  101 5.00000E-03          81                     1    1           1
 -4  DISP        4    1
 -5  D1          1    2    1    0
 -5  D2          1    2    2    0
 -5  D3          1    2    3    0
 -5  ALL         1    2    0    0    1ALL
 -1         5 0.00000E+00 0.00000E+00 0.00000E+00
 -1         6 0.00000E+00 0.00000E+00 0.00000E+00
 -1         7 0.00000E+00 0.00000E+00 0.00000E+00
 -1         8 0.00000E+00 0.00000E+00 0.00000E+00
 -1        21 0.00000E+00 0.00000E+00 0.00000E+00
 -1        22 0.00000E+00 0.00000E+00 0.00000E+00
 -1        23 0.00000E+00 0.00000E+00 0.00000E+00
 -1        24 0.00000E+00 0.00000E+00 0.00000E+00
 -1        25 0.00000E+00 0.00000E+00 0.00000E+00
 -1        26 0.00000E+00 0.00000E+00 0.00000E+00
 -1        27 0.00000E+00 0.00000E+00 0.00000E+00
 -1        28 0.00000E+00 0.00000E+00 0.00000E+00
 -1        29 0.00000E+00 0.00000E+00 0.00000E+00
 -1        30 0.00000E+00 0.00000E+00 0.00000E+00
 -1        31 0.00000E+00 0.00000E+00 0.00000E+00
 -1        32 0.00000E+00 0.00000E+00 0.00000E+00
 -1        44 6.82361E-04-2.79558E-03 4.78596E-04
 -1        45 3.29104E-04-2.30087E-03 6.58392E-04
 -1        46-2.20773E-04-1.76323E-03 8.53868E-04
 -1        47 1.24806E-04-7.03730E-04 4.61052E-04
 -1        48-1.24818E-04-7.03745E-04 4.61074E-04
 -1        49 2.20708E-04-1.76325E-03 8.53926E-04
 -1        50-3.29229E-04-2.30088E-03 6.58493E-04
 -1        51-6.82659E-04-2.79562E-03 4.78782E-04
 -1        74-2.56456E-04-3.95581E-03-5.36780E-04
 -1        75 1.71771E-05-2.83022E-03-6.71012E-04
 -1        76 2.58821E-05-1.50903E-03-8.65866E-04
 -1        77-2.23560E-04-5.28092E-04-4.70304E-04
 -1        89 2.56157E-04-3.95577E-03-5.36593E-04
 -1        90-1.73013E-05-2.83021E-03-6.70911E-04
 -1        91-2.59475E-05-1.50901E-03-8.65808E-04
 -1        92 2.23548E-04-5.28077E-04-4.70282E-04
 -1        98 0.00000E+00 0.00000E+00 0.00000E+00
 -1        99 0.00000E+00 0.00000E+00 0.00000E+00
 -1       100 0.00000E+00 0.00000E+00 0.00000E+00
 -1       101 0.00000E+00 0.00000E+00 0.00000E+00
 -1       102 0.00000E+00 0.00000E+00 0.00000E+00
 -1       124-6.48693E-05-3.14587E-03 4.45804E-04
 -1       125-1.14700E-07-3.87575E-03 4.73234E-04
 -1       126 6.46150E-05-3.14585E-03 4.45741E-04
 -1       127-7.14186E-08-2.57567E-03 9.45309E-04
 -1       128 3.49915E-05-1.80111E-03 9.13402E-04
 -1       129-2.02387E-08-1.69861E-03 9.45927E-04
 -1       130-3.50434E-05-1.80110E-03 9.13366E-04
 -1       131-2.87420E-09-6.85609E-04 4.66631E-04
 -1       153-3.57140E-04-3.24222E-03 1.79543E-04
 -1       154-8.49772E-05-2.91620E-03-3.14650E-05
 -1       155 3.08341E-04-3.63106E-03-2.40048E-04
 -1       156-1.20843E-04-2.88859E-03-7.95155E-05
 -1       157 7.75422E-05-1.46294E-03 3.70978E-04
 -1       158 8.91236E-05-1.37466E-03-2.88910E-05
 -1       159-3.24246E-05-1.39499E-03-3.90457E-04
 -1       160 3.88131E-05-5.33795E-04 1.34445E-06
 -1       182 2.64328E-05-2.66620E-03-4.97318E-04
 -1       183-1.14480E-07-4.74929E-03-5.03045E-04
 -1       184-2.66874E-05-2.66619E-03-4.97255E-04
 -1       185-7.17133E-08-2.85624E-03-9.18383E-04
 -1       186-2.24844E-05-2.02775E-03-9.64263E-04
 -1       187-2.00911E-08-1.70187E-03-9.81599E-04
 -1       188 2.24324E-05-2.02774E-03-9.64226E-04
 -1       189-2.91407E-09-6.58606E-04-4.68195E-04
 -1       211-3.08653E-04-3.63104E-03-2.39886E-04
 -1       212 8.46679E-05-2.91621E-03-3.13030E-05
 -1       213 3.56829E-04-3.24224E-03 1.79705E-04
 -1       214 1.20713E-04-2.88859E-03-7.94157E-05
 -1       215 3.23551E-05-1.39498E-03-3.90394E-04
 -1       216-8.91954E-05-1.37466E-03-2.88305E-05
 -1       217-7.76115E-05-1.46295E-03 3.71040E-04
 -1       218-3.88324E-05-5.33795E-04 1.36415E-06
 -1       250-1.19591E-07-4.09480E-03 1.60408E-04
 -1       251 5.28747E-05-2.51042E-03-2.27730E-05
 -1       252-1.22655E-07-3.45877E-03-2.07270E-05
 -1       253-5.31450E-05-2.51042E-03-2.28206E-05
 -1       254-1.19324E-07-4.43038E-03-2.47638E-04
 -1       255-7.51447E-08-2.63174E-03-3.50494E-05
 -1       256-2.25170E-08-1.53753E-03 3.88320E-04
 -1       257-5.06305E-05-1.67649E-03-9.75194E-06
 -1       258-2.30919E-08-1.62534E-03-1.71761E-05
 -1       259 5.05729E-05-1.67649E-03-9.78954E-06
 -1       260-2.24748E-08-1.55851E-03-4.24327E-04
 -1       261-6.58234E-09-6.58547E-04-3.58100E-06
 -3
    1PSTEP                         2           2           1          
  100CL  102 1.00000E-02          81                     1    2           1
 -4  DISP        4    1
 -5  D1          1    2    1    0
 -5  D2          1    2    2    0
 -5  D3          1    2    3    0
 -5  ALL         1    2    0    0    1ALL
 -1         5 0.00000E+00 0.00000E+00 0.00000E+00
 -1         6 0.00000E+00 0.00000E+00 0.00000E+00
 -1         7 0.00000E+00 0.00000E+00 0.00000E+00
 -1         8 0.00000E+00 0.00000E+00 0.00000E+00
 -1        21 0.00000E+00 0.00000E+00 0.00000E+00
 -1        22 0.00000E+00 0.00000E+00 0.00000E+00
 -1        23 0.00000E+00 0.00000E+00 0.00000E+00
 -1        24 0.00000E+00 0.00000E+00 0.00000E+00
 -1        25 0.00000E+00 0.00000E+00 0.00000E+00
 -1        26 0.00000E+00 0.00000E+00 0.00000E+00
 -1        27 0.00000E+00 0.00000E+00 0.00000E+00
 -1        28 0.00000E+00 0.00000E+00 0.00000E+00
 -1        29 0.00000E+00 0.00000E+00 0.00000E+00
 -1        30 0.00000E+00 0.00000E+00 0.00000E+00
 -1        31 0.00000E+00 0.00000E+00 0.00000E+00
 -1        32 0.00000E+00 0.00000E+00 0.00000E+00
 -1        44-4.19144E-04 1.36624E-03-2.52977E-04
 -1        45-1.21967E-04 1.18344E-03-3.17666E-04
 -1        46 1.04945E-04 8.73083E-04-3.83760E-04
 -1        47-6.81061E-05 3.77211E-04-2.50411E-04
 -1        48 6.81074E-05 3.77199E-04-2.50400E-04
 -1        49-1.04918E-04 8.73056E-04-3.83761E-04
 -1        50 1.21938E-04 1.18344E-03-3.17658E-04
 -1        51 4.19154E-04 1.36623E-03-2.52947E-04
 -1        74 4.16028E-04 1.37263E-03 2.53235E-04
 -1        75 1.19727E-04 1.18642E-03 3.17807E-04
 -1        76-1.03810E-04 8.71757E-04 3.83841E-04
 -1        77 6.87253E-05 3.76247E-04 2.50438E-04
 -1        89-4.16133E-04 1.37250E-03 2.53230E-04
 -1        90-1.19776E-04 1.18640E-03 3.17792E-04
 -1        91 1.03786E-04 8.71741E-04 3.83853E-04
 -1        92-6.87318E-05 3.76246E-04 2.50448E-04
 -1        98 0.00000E+00 0.00000E+00 0.00000E+00
 -1        99 0.00000E+00 0.00000E+00 0.00000E+00
 -1       100 0.00000E+00 0.00000E+00 0.00000E+00
 -1       101 0.00000E+00 0.00000E+00 0.00000E+00
 -1       102 0.00000E+00 0.00000E+00 0.00000E+00
 -1       124 2.95287E-05 1.52490E-03-2.34687E-04
 -1       125-4.07977E-08 1.91532E-03-2.44872E-04
 -1       126-2.95601E-05 1.52495E-03-2.34710E-04
 -1       127 9.04797E-09 1.32690E-03-4.43500E-04
 -1       128-6.54606E-06 8.89239E-04-4.45442E-04
 -1       129-1.14450E-08 8.24859E-04-4.72107E-04
 -1       130 6.54701E-06 8.89243E-04-4.45441E-04
 -1       131 5.26113E-09 3.59711E-04-2.34681E-04
 -1       153 3.00008E-04 1.79740E-03-1.04756E-04
 -1       154 6.72833E-08 1.90232E-03 1.55761E-07
 -1       155-2.99400E-04 1.80057E-03 1.05030E-04
 -1       156 5.26208E-07 1.45289E-03 4.07325E-07
 -1       157-6.30933E-05 7.60928E-04-1.72837E-04
 -1       158-3.61663E-07 7.34194E-04 1.51046E-07
 -1       159 6.27647E-05 7.60342E-04 1.72928E-04
 -1       160-1.72602E-07 2.52660E-04-2.87165E-09
 -1       182 2.77929E-05 1.52248E-03 2.34953E-04
 -1       183-2.91838E-08 1.91958E-03 2.45125E-04
 -1       184-2.78658E-05 1.52243E-03 2.34962E-04
 -1       185-2.54790E-08 1.32814E-03 4.43283E-04
 -1       186-6.01212E-06 8.90397E-04 4.45714E-04
 -1       187-9.70228E-09 8.24891E-04 4.72245E-04
 -1       188 5.98803E-06 8.90386E-04 4.45715E-04
 -1       189-3.44843E-09 3.59635E-04 2.34694E-04
 -1       211 2.99356E-04 1.80048E-03 1.05043E-04
 -1       212-7.85516E-08 1.90229E-03 1.10324E-07
 -1       213-2.99982E-04 1.79741E-03-1.04768E-04
 -1       214-5.48966E-07 1.45285E-03 4.19378E-07
 -1       215-6.27856E-05 7.60335E-04 1.72935E-04
 -1       216 3.50641E-07 7.34187E-04 1.66425E-07
 -1       217 6.30955E-05 7.60905E-04-1.72830E-04
 -1       218 1.69259E-07 2.52652E-04 7.26094E-10
 -1       250-2.66385E-08 1.93221E-03-9.96589E-05
 -1       251-6.30553E-07 1.19253E-03 1.38447E-07
 -1       252 6.59371E-09 1.72869E-03 9.16581E-08
 -1       253 6.28389E-07 1.19254E-03 1.50756E-07
 -1       254-1.18269E-08 1.93280E-03 1.00102E-04
 -1       255-6.32718E-09 1.37317E-03 1.70473E-07
 -1       256-6.16363E-09 7.57826E-04-2.08660E-04
 -1       257 3.21837E-07 9.02238E-04 3.96760E-08
 -1       258-4.81164E-09 7.60132E-04 8.76008E-08
 -1       259-3.31018E-07 9.02242E-04 3.47558E-08
 -1       260-7.02945E-09 7.58165E-04 2.08854E-04
 -1       261-4.03757E-09 3.27254E-04 1.88487E-08
 -3
    1PSTEP                         3           3           1          
  100CL  103 1.50000E-02          81                     1    3           1
 -4  DISP        4    1
 -5  D1          1    2    1    0
 -5  D2          1    2    2    0
 -5  D3          1    2    3    0
 -5  ALL         1    2    0    0    1ALL
 -1         5 0.00000E+00 0.00000E+00 0.00000E+00
 -1         6 0.00000E+00 0.00000E+00 0.00000E+00
 -1         7 0.00000E+00 0.00000E+00 0.00000E+00
 -1         8 0.00000E+00 0.00000E+00 0.00000E+00
 -1        21 0.00000E+00 0.00000E+00 0.00000E+00
 -1        22 0.00000E+00 0.00000E+00 0.00000E+00
 -1        23 0.00000E+00 0.00000E+00 0.00000E+00
 -1        24 0.00000E+00 0.00000E+00 0.00000E+00
 -1        25 0.00000E+00 0.00000E+00 0.00000E+00
 -1        26 0.00000E+00 0.00000E+00 0.00000E+00
 -1        27 0.00000E+00 0.00000E+00 0.00000E+00
 -1        28 0.00000E+00 0.00000E+00 0.00000E+00
 -1        29 0.00000E+00 0.00000E+00 0.00000E+00
 -1        30 0.00000E+00 0.00000E+00 0.00000E+00
 -1        31 0.00000E+00 0.00000E+00 0.00000E+00
 -1        32 0.00000E+00 0.00000E+00 0.00000E+00
 -1        44 3.32091E-04-1.08277E-03 2.00466E-04
 -1        45 9.57941E-05-9.37783E-04 2.51629E-04
 -1        46-8.29150E-05-6.91552E-04 3.03560E-04
 -1        47 5.40557E-05-2.98966E-04 1.98527E-04
 -1        48-5.40610E-05-2.98959E-04 1.98522E-04
 -1        49 8.28802E-05-6.91537E-04 3.03583E-04
 -1        50-9.57599E-05-9.37837E-04 2.51665E-04
 -1        51-3.32059E-04-1.08290E-03 2.00428E-04
 -1        74-3.34167E-04-1.08056E-03-2.00432E-04
 -1        75-9.69922E-05-9.36561E-04-2.51652E-04
 -1        76 8.36729E-05-6.92364E-04-3.03590E-04
 -1        77-5.37125E-05-2.99326E-04-1.98526E-04
 -1        89 3.34203E-04-1.08041E-03-2.00457E-04
 -1        90 9.70182E-05-9.36533E-04-2.51624E-04
 -1        91-8.37182E-05-6.92375E-04-3.03567E-04
 -1        92 5.37059E-05-2.99338E-04-1.98537E-04
 -1        98 0.00000E+00 0.00000E+00 0.00000E+00
 -1        99 0.00000E+00 0.00000E+00 0.00000E+00
 -1       100 0.00000E+00 0.00000E+00 0.00000E+00
 -1       101 0.00000E+00 0.00000E+00 0.00000E+00
 -1       102 0.00000E+00 0.00000E+00 0.00000E+00
 -1       124-2.27959E-05-1.20709E-03 1.85926E-04
 -1       125 3.91481E-08-1.51667E-03 1.94156E-04
 -1       126 2.28334E-05-1.20710E-03 1.85952E-04
 -1       127-3.41479E-09-1.05157E-03 3.50756E-04
 -1       128 4.96403E-06-7.04287E-04 3.52702E-04
 -1       129 7.57543E-09-6.52832E-04 3.73793E-04
 -1       130-4.96874E-06-7.04279E-04 3.52688E-04
 -1       131-6.74698E-09-2.85056E-04 1.85851E-04
 -1       153-2.38454E-04-1.42629E-03 8.30851E-05
 -1       154-3.32501E-07-1.51074E-03-7.42096E-09
 -1       155 2.39181E-04-1.42635E-03-8.31028E-05
 -1       156 4.76764E-08-1.15030E-03 1.24433E-07
 -1       157 5.01103E-05-6.03121E-04 1.36697E-04
 -1       158-2.44484E-08-5.82454E-04 3.40081E-08
 -1       159-5.02600E-05-6.03235E-04-1.36732E-04
 -1       160-3.52338E-09-2.00145E-04 8.47979E-09
 -1       182-2.27153E-05-1.20789E-03-1.85929E-04
 -1       183 5.18907E-08-1.51571E-03-1.94128E-04
 -1       184 2.27663E-05-1.20788E-03-1.85943E-04
 -1       185-8.66140E-09-1.05162E-03-3.50999E-04
 -1       186 5.07733E-06-7.04127E-04-3.52674E-04
 -1       187 5.23353E-09-6.52876E-04-3.73867E-04
 -1       188-5.08957E-06-7.04116E-04-3.52662E-04
 -1       189-8.70278E-09-2.85096E-04-1.85894E-04
 -1       211-2.39177E-04-1.42623E-03-8.31143E-05
 -1       212 3.93095E-07-1.51076E-03 2.50814E-08
 -1       213 2.38444E-04-1.42642E-03 8.30991E-05
 -1       214-9.20864E-08-1.15029E-03 1.03097E-07
 -1       215 5.02580E-05-6.03261E-04-1.36723E-04
 -1       216 4.65432E-08-5.82466E-04 2.35429E-08
 -1       217-5.01052E-05-6.03103E-04 1.36697E-04
 -1       218-7.82454E-09-2.00146E-04 2.89018E-08
 -1       250-1.74511E-08-1.52756E-03 7.91405E-05
 -1       251 3.70477E-07-9.44438E-04 2.78029E-08
 -1       252-9.60717E-08-1.36735E-03 1.50793E-08
 -1       253-4.38325E-07-9.44423E-04-3.03963E-08
 -1       254-1.10914E-08-1.52663E-03-7.91180E-05
 -1       255-2.36551E-09-1.08797E-03-6.35581E-09
 -1       256-9.85456E-09-6.00214E-04 1.65430E-04
 -1       257-4.44110E-08-7.15149E-04-2.52603E-08
 -1       258-2.13300E-08-6.01660E-04-7.65750E-09
 -1       259 3.24710E-08-7.15144E-04-1.12478E-08
 -1       260-1.09057E-08-6.00345E-04-1.65411E-04
 -1       261 6.85649E-09-2.59297E-04 2.21483E-09
 -3
    1PSTEP                         4           4           1          
  100CL  104 2.00000E-02          81                     1    4           1
 -4  DISP        4    1
 -5  D1          1    2    1    0
 -5  D2          1    2    2    0
 -5  D3          1    2    3    0
 -5  ALL         1    2    0    0    1ALL
 -1         5 0.00000E+00 0.00000E+00 0.00000E+00
 -1         6 0.00000E+00 0.00000E+00 0.00000E+00
 -1         7 0.00000E+00 0.00000E+00 0.00000E+00
 -1         8 0.00000E+00 0.00000E+00 0.00000E+00
 -1        21 0.00000E+00 0.00000E+00 0.00000E+00
 -1        22 0.00000E+00 0.00000E+00 0.00000E+00
 -1        23 0.00000E+00 0.00000E+00 0.00000E+00
 -1        24 0.00000E+00 0.00000E+00 0.00000E+00
 -1        25 0.00000E+00 0.00000E+00 0.00000E+00
 -1        26 0.00000E+00 0.00000E+00 0.00000E+00
 -1        27 0.00000E+00 0.00000E+00 0.00000E+00
 -1        28 0.00000E+00 0.00000E+00 0.00000E+00
 -1        29 0.00000E+00 0.00000E+00 0.00000E+00
 -1        30 0.00000E+00 0.00000E+00 0.00000E+00
 -1        31 0.00000E+00 0.00000E+00 0.00000E+00
 -1        32 0.00000E+00 0.00000E+00 0.00000E+00
 -1        44-2.57288E-04 8.40692E-04-1.55559E-04
 -1        45-7.43270E-05 7.28261E-04-1.95206E-04
 -1        46 6.41733E-05 5.36409E-04-2.35729E-04
 -1        47-4.20466E-05 2.31907E-04-1.54050E-04
 -1        48 4.20347E-05 2.31896E-04-1.54035E-04
 -1        49-6.42002E-05 5.36397E-04-2.35707E-04
 -1        50 7.42423E-05 7.28262E-04-1.95172E-04
 -1        51 2.57184E-04 8.40719E-04-1.55518E-04
 -1        74 2.57442E-04 8.40456E-04 1.55567E-04
 -1        75 7.44119E-05 7.28062E-04 1.95208E-04
 -1        76-6.44517E-05 5.36667E-04 2.35685E-04
 -1        77 4.19732E-05 2.31960E-04 1.54018E-04
 -1        89-2.57558E-04 8.40360E-04 1.55554E-04
 -1        90-7.45206E-05 7.28067E-04 1.95236E-04
 -1        91 6.44207E-05 5.36655E-04 2.35721E-04
 -1        92-4.19896E-05 2.31969E-04 1.54046E-04
 -1        98 0.00000E+00 0.00000E+00 0.00000E+00
 -1        99 0.00000E+00 0.00000E+00 0.00000E+00
 -1       100 0.00000E+00 0.00000E+00 0.00000E+00
 -1       101 0.00000E+00 0.00000E+00 0.00000E+00
 -1       102 0.00000E+00 0.00000E+00 0.00000E+00
 -1       124 1.81588E-05 9.36853E-04-1.44298E-04
 -1       125-6.50822E-08 1.17788E-03-1.50584E-04
 -1       126-1.82721E-05 9.36861E-04-1.44309E-04
 -1       127-3.39228E-08 8.15968E-04-2.72412E-04
 -1       128-3.95760E-06 5.46776E-04-2.73794E-04
 -1       129-2.26378E-08 5.07030E-04-2.90196E-04
 -1       130 3.92134E-06 5.46777E-04-2.73807E-04
 -1       131-2.64238E-09 2.21251E-04-1.44288E-04
 -1       153 1.84692E-04 1.10567E-03-6.44694E-05
 -1       154 4.89358E-08 1.17134E-03 2.84001E-08
 -1       155-1.84865E-04 1.10673E-03 6.44303E-05
 -1       156-6.76487E-08 8.93275E-04-2.95452E-08
 -1       157-3.88443E-05 4.67928E-04-1.06205E-04
 -1       158 3.40088E-08 4.51615E-04-2.26856E-08
 -1       159 3.88351E-05 4.67775E-04 1.06186E-04
 -1       160-1.37054E-08 1.55314E-04-2.32164E-08
 -1       182 1.71282E-05 9.36985E-04 1.44263E-04
 -1       183-8.48282E-08 1.17766E-03 1.50621E-04
 -1       184-1.72683E-05 9.36959E-04 1.44295E-04
 -1       185-3.57279E-08 8.15994E-04 2.72443E-04
 -1       186-3.81240E-06 5.46748E-04 2.73792E-04
 -1       187-2.85492E-08 5.06940E-04 2.90194E-04
 -1       188 3.76804E-06 5.46738E-04 2.73800E-04
 -1       189-4.74646E-09 2.21270E-04 1.44307E-04
 -1       211 1.84792E-04 1.10668E-03 6.44598E-05
 -1       212-9.67014E-08 1.17135E-03 5.02572E-09
 -1       213-1.84749E-04 1.10569E-03-6.44772E-05
 -1       214-3.46433E-08 8.93256E-04 6.19181E-09
 -1       215-3.88676E-05 4.67773E-04 1.06213E-04
 -1       216-6.17527E-08 4.51618E-04 1.41325E-08
 -1       217 3.88124E-05 4.67921E-04-1.06172E-04
 -1       218-4.57447E-09 1.55311E-04 1.59782E-09
 -1       250-6.82373E-08 1.18784E-03-6.13518E-05
 -1       251-6.16321E-07 7.32830E-04 4.18872E-08
 -1       252-6.17226E-08 1.06288E-03-9.39429E-09
 -1       253 5.23500E-07 7.32824E-04-1.28493E-09
 -1       254-7.68607E-08 1.18666E-03 6.13811E-05
 -1       255-2.76291E-08 8.44436E-04-3.30292E-09
 -1       256-2.55428E-08 4.65872E-04-1.28355E-04
 -1       257 7.44692E-08 5.55030E-04 2.32703E-09
 -1       258-2.96622E-08 4.67158E-04 2.84569E-09
 -1       259-1.16326E-07 5.55028E-04-3.08422E-09
 -1       260-2.87596E-08 4.66065E-04 1.28343E-04
 -1       261-6.57862E-09 2.01220E-04 2.81769E-09
 -3
    1PSTEP                         5           5           1          
  100CL  105 2.50000E-02          81                     1    5           1
 -4  DISP        4    1
 -5  D1          1    2    1    0
 -5  D2          1    2    2    0
 -5  D3          1    2    3    0
 -5  ALL         1    2    0    0    1ALL
 -1         5 0.00000E+00 0.00000E+00 0.00000E+00
 -1         6 0.00000E+00 0.00000E+00 0.00000E+00
 -1         7 0.00000E+00 0.00000E+00 0.00000E+00
 -1         8 0.00000E+00 0.00000E+00 0.00000E+00
 -1        21 0.00000E+00 0.00000E+00 0.00000E+00
 -1        22 0.00000E+00 0.00000E+00 0.00000E+00
 -1        23 0.00000E+00 0.00000E+00 0.00000E+00
 -1        24 0.00000E+00 0.00000E+00 0.00000E+00
 -1        25 0.00000E+00 0.00000E+00 0.00000E+00
 -1        26 0.00000E+00 0.00000E+00 0.00000E+00
 -1        27 0.00000E+00 0.00000E+00 0.00000E+00
 -1        28 0.00000E+00 0.00000E+00 0.00000E+00
 -1        29 0.00000E+00 0.00000E+00 0.00000E+00
 -1        30 0.00000E+00 0.00000E+00 0.00000E+00
 -1        31 0.00000E+00 0.00000E+00 0.00000E+00
 -1        32 0.00000E+00 0.00000E+00 0.00000E+00
 -1        44 1.92863E-04-6.36752E-04 1.17500E-04
 -1        45 5.51081E-05-5.50850E-04 1.47510E-04
 -1        46-4.80506E-05-4.04653E-04 1.77924E-04
 -1        47 3.19839E-05-1.74875E-04 1.16374E-04
 -1        48-3.19849E-05-1.74867E-04 1.16365E-04
 -1        49 4.80234E-05-4.04641E-04 1.77935E-04
 -1        50-5.50721E-05-5.50874E-04 1.47516E-04
 -1        51-1.92855E-04-6.36803E-04 1.17472E-04
 -1        74-1.97677E-04-6.31690E-04-1.17472E-04
 -1        75-5.78502E-05-5.48042E-04-1.47526E-04
 -1        76 4.95458E-05-4.06190E-04-1.77938E-04
 -1        77-3.12020E-05-1.75681E-04-1.16369E-04
 -1        89 1.97725E-04-6.31597E-04-1.17480E-04
 -1        90 5.78820E-05-5.48019E-04-1.47503E-04
 -1        91-4.95593E-05-4.06196E-04-1.77940E-04
 -1        92 3.12000E-05-1.75686E-04-1.16379E-04
 -1        98 0.00000E+00 0.00000E+00 0.00000E+00
 -1        99 0.00000E+00 0.00000E+00 0.00000E+00
 -1       100 0.00000E+00 0.00000E+00 0.00000E+00
 -1       101 0.00000E+00 0.00000E+00 0.00000E+00
 -1       102 0.00000E+00 0.00000E+00 0.00000E+00
 -1       124-1.22512E-05-7.06712E-04 1.08996E-04
 -1       125 4.48584E-08-8.90028E-04 1.13774E-04
 -1       126 1.22914E-05-7.06735E-04 1.09021E-04
 -1       127-4.02905E-09-6.16409E-04 2.05415E-04
 -1       128 2.59805E-06-4.12940E-04 2.06777E-04
 -1       129 1.07396E-08-3.82494E-04 2.19094E-04
 -1       130-2.59838E-06-4.12935E-04 2.06768E-04
 -1       131-4.97944E-09-1.67006E-04 1.08915E-04
 -1       153-1.39209E-04-8.37284E-04 4.87129E-05
 -1       154-8.65338E-07-8.85649E-04 7.29424E-09
 -1       155 1.40880E-04-8.34990E-04-4.87272E-05
 -1       156 1.02269E-07-6.74197E-04 2.86466E-07
 -1       157 2.92601E-05-3.53132E-04 8.00994E-05
 -1       158 2.90037E-08-3.41378E-04 6.65316E-08
 -1       159-2.96297E-05-3.53808E-04-8.01684E-05
 -1       160-2.34314E-09-1.17271E-04 1.81417E-08
 -1       182-1.44815E-05-7.08537E-04-1.08992E-04
 -1       183 2.90127E-08-8.87910E-04-1.13794E-04
 -1       184 1.45247E-05-7.08526E-04-1.09014E-04
 -1       185 4.92248E-09-6.16450E-04-2.05963E-04
 -1       186 3.27606E-06-4.12528E-04-2.06697E-04
 -1       187 4.66090E-09-3.82658E-04-2.19209E-04
 -1       188-3.27516E-06-4.12523E-04-2.06693E-04
 -1       189-3.19274E-09-1.67052E-04-1.08966E-04
 -1       211-1.40852E-04-8.34900E-04-4.87542E-05
 -1       212 9.28833E-07-8.85630E-04 1.88484E-08
 -1       213 1.39215E-04-8.37337E-04 4.87169E-05
 -1       214-1.17883E-07-6.74189E-04 2.67694E-07
 -1       215 2.96395E-05-3.53819E-04-8.01695E-05
 -1       216-8.21801E-09-3.41378E-04 5.50146E-08
 -1       217-2.92572E-05-3.53117E-04 8.00961E-05
 -1       218-2.05704E-09-1.17270E-04 2.79836E-08
 -1       250 9.54285E-09-8.95162E-04 4.64290E-05
 -1       251-1.84608E-07-5.53575E-04-7.04177E-09
 -1       252-4.41126E-08-8.01426E-04 3.31438E-09
 -1       253 1.69604E-07-5.53584E-04-4.59627E-08
 -1       254-2.73150E-09-8.95377E-04-4.63482E-05
 -1       255 5.72365E-09-6.37677E-04 9.75717E-10
 -1       256-1.65384E-09-3.51849E-04 9.69985E-05
 -1       257 1.17970E-07-4.19143E-04-3.86355E-08
 -1       258-9.96230E-09-3.52598E-04-1.32272E-09
 -1       259-1.18521E-07-4.19144E-04-2.56953E-08
 -1       260-3.97568E-09-3.51671E-04-9.69433E-05
 -1       261 4.78265E-09-1.51961E-04 3.54446E-09
 -3
    1PSTEP                         6           6           1          
  100CL  106 3.00000E-02          81                     1    6           1
 -4  DISP        4    1
 -5  D1          1    2    1    0
 -5  D2          1    2    2    0
 -5  D3          1    2    3    0
 -5  ALL         1    2    0    0    1ALL
 -1         5 0.00000E+00 0.00000E+00 0.00000E+00
 -1         6 0.00000E+00 0.00000E+00 0.00000E+00
 -1         7 0.00000E+00 0.00000E+00 0.00000E+00
 -1         8 0.00000E+00 0.00000E+00 0.00000E+00
 -1        21 0.00000E+00 0.00000E+00 0.00000E+00
 -1        22 0.00000E+00 0.00000E+00 0.00000E+00
 -1        23 0.00000E+00 0.00000E+00 0.00000E+00
 -1        24 0.00000E+00 0.00000E+00 0.00000E+00
 -1        25 0.00000E+00 0.00000E+00 0.00000E+00
 -1        26 0.00000E+00 0.00000E+00 0.00000E+00
 -1        27 0.00000E+00 0.00000E+00 0.00000E+00
 -1        28 0.00000E+00 0.00000E+00 0.00000E+00
 -1        29 0.00000E+00 0.00000E+00 0.00000E+00
 -1        30 0.00000E+00 0.00000E+00 0.00000E+00
 -1        31 0.00000E+00 0.00000E+00 0.00000E+00
 -1        32 0.00000E+00 0.00000E+00 0.00000E+00
 -1        44-1.41743E-04 4.59289E-04-8.51838E-05
 -1        45-4.10352E-05 3.98099E-04-1.06937E-04
 -1        46 3.54256E-05 2.94088E-04-1.28990E-04
 -1        47-2.28760E-05 1.27156E-04-8.43648E-05