    1C
    1UUSER                                                              
    1UDATE              18.july.2018                                    
    1UTIME              00:49:59                                        
    1UHOST                                                              
    1UPGM               CalculiX                                        
    1UVERSION           Version 2.13                             
    1UCOMPILETIME       jue jun 14 00:40:39 CEST 2018                    
    1UDIR                                                               
    1UDBN                                                               
    1UMAT    1EL                                                        
    2C                           201                                     1
 -1         1 0.00000E+00 0.00000E+00 0.00000E+00
 -1         2 1.00000E+00 0.00000E+00 0.00000E+00
 -1         3 1.00000E+00 1.00000E+00 0.00000E+00
 -1         4 0.00000E+00 1.00000E+00 0.00000E+00
 -1         9 2.50000E-01 0.00000E+00 0.00000E+00
 -1        10 5.00000E-01 0.00000E+00 0.00000E+00
 -1        11 7.50000E-01 0.00000E+00 0.00000E+00
 -1        12 1.00000E+00 2.50000E-01 0.00000E+00
 -1        13 1.00000E+00 5.00000E-01 0.00000E+00
 -1        14 1.00000E+00 7.50000E-01 0.00000E+00
 -1        15 7.50000E-01 1.00000E+00 0.00000E+00
 -1        16 5.00000E-01 1.00000E+00 0.00000E+00
 -1        17 2.50000E-01 1.00000E+00 0.00000E+00
 -1        18 0.00000E+00 7.50000E-01 0.00000E+00
 -1        19 0.00000E+00 5.00000E-01 0.00000E+00
 -1        20 0.00000E+00 2.50000E-01 0.00000E+00
 -1        33 1.00000E+00 0.00000E+00 5.00000E-01
 -1        34 1.00000E+00 0.00000E+00 1.00000E+00
 -1        35 1.00000E+00 0.00000E+00 1.50000E+00
 -1        36 1.00000E+00 0.00000E+00 2.00000E+00
 -1        37 1.00000E+00 0.00000E+00 2.50000E+00
 -1        38 1.00000E+00 0.00000E+00 3.00000E+00
 -1        39 1.00000E+00 0.00000E+00 3.50000E+00
 -1        40 1.00000E+00 0.00000E+00 4.00000E+00
 -1        41 1.00000E+00 0.00000E+00 4.50000E+00
 -1        42 1.00000E+00 0.00000E+00 5.00000E+00
 -1        43 1.00000E+00 0.00000E+00 5.50000E+00
 -1        44 1.00000E+00 0.00000E+00 6.00000E+00
 -1        51 0.00000E+00 0.00000E+00 6.00000E+00
 -1        52 0.00000E+00 0.00000E+00 5.50000E+00
 -1        53 0.00000E+00 0.00000E+00 5.00000E+00
 -1        54 0.00000E+00 0.00000E+00 4.50000E+00
 -1        55 0.00000E+00 0.00000E+00 4.00000E+00
 -1        56 0.00000E+00 0.00000E+00 3.50000E+00
 -1        57 0.00000E+00 0.00000E+00 3.00000E+00
 -1        58 0.00000E+00 0.00000E+00 2.50000E+00
 -1        59 0.00000E+00 0.00000E+00 2.00000E+00
 -1        60 0.00000E+00 0.00000E+00 1.50000E+00
 -1        61 0.00000E+00 0.00000E+00 1.00000E+00
 -1        62 0.00000E+00 0.00000E+00 5.00000E-01
 -1        63 1.00000E+00 1.00000E+00 5.00000E-01
 -1        64 1.00000E+00 1.00000E+00 1.00000E+00
 -1        65 1.00000E+00 1.00000E+00 1.50000E+00
 -1        66 1.00000E+00 1.00000E+00 2.00000E+00
 -1        67 1.00000E+00 1.00000E+00 2.50000E+00
 -1        68 1.00000E+00 1.00000E+00 3.00000E+00
 -1        69 1.00000E+00 1.00000E+00 3.50000E+00
 -1        70 1.00000E+00 1.00000E+00 4.00000E+00
 -1        71 1.00000E+00 1.00000E+00 4.50000E+00
 -1        72 1.00000E+00 1.00000E+00 5.00000E+00
 -1        73 1.00000E+00 1.00000E+00 5.50000E+00
 -1        74 1.00000E+00 1.00000E+00 6.00000E+00
 -1        78 0.00000E+00 1.00000E+00 5.00000E-01
 -1        79 0.00000E+00 1.00000E+00 1.00000E+00
 -1        80 0.00000E+00 1.00000E+00 1.50000E+00
 -1        81 0.00000E+00 1.00000E+00 2.00000E+00
 -1        82 0.00000E+00 1.00000E+00 2.50000E+00
 -1        83 0.00000E+00 1.00000E+00 3.00000E+00
 -1        84 0.00000E+00 1.00000E+00 3.50000E+00
 -1        85 0.00000E+00 1.00000E+00 4.00000E+00
 -1        86 0.00000E+00 1.00000E+00 4.50000E+00
 -1        87 0.00000E+00 1.00000E+00 5.00000E+00
 -1        88 0.00000E+00 1.00000E+00 5.50000E+00
 -1        89 0.00000E+00 1.00000E+00 6.00000E+00
 -1        93 5.00000E-01 2.50000E-01 0.00000E+00
 -1        94 2.50000E-01 5.00000E-01 0.00000E+00
 -1        95 5.00000E-01 5.00000E-01 0.00000E+00
 -1        96 7.50000E-01 5.00000E-01 0.00000E+00
 -1        97 5.00000E-01 7.50000E-01 0.00000E+00
 -1       103 5.00000E-01 0.00000E+00 5.00000E-01
 -1       104 2.50000E-01 0.00000E+00 1.00000E+00
 -1       105 5.00000E-01 0.00000E+00 1.00000E+00
 -1       106 7.50000E-01 0.00000E+00 1.00000E+00
 -1       107 5.00000E-01 0.00000E+00 1.50000E+00
 -1       108 2.50000E-01 0.00000E+00 2.00000E+00
 -1       109 5.00000E-01 0.00000E+00 2.00000E+00
 -1       110 7.50000E-01 0.00000E+00 2.00000E+00
 -1       111 5.00000E-01 0.00000E+00 2.50000E+00
 -1       112 2.50000E-01 0.00000E+00 3.00000E+00
 -1       113 5.00000E-01 0.00000E+00 3.00000E+00
 -1       114 7.50000E-01 0.00000E+00 3.00000E+00
 -1       115 5.00000E-01 0.00000E+00 3.50000E+00
 -1       116 2.50000E-01 0.00000E+00 4.00000E+00
 -1       117 5.00000E-01 0.00000E+00 4.00000E+00
 -1       118 7.50000E-01 0.00000E+00 4.00000E+00
 -1       119 5.00000E-01 0.00000E+00 4.50000E+00
 -1       120 2.50000E-01 0.00000E+00 5.00000E+00
 -1       121 5.00000E-01 0.00000E+00 5.00000E+00
 -1       122 7.50000E-01 0.00000E+00 5.00000E+00
 -1       123 5.00000E-01 0.00000E+00 5.50000E+00
 -1       124 2.50000E-01 0.00000E+00 6.00000E+00
 -1       125 5.00000E-01 0.00000E+00 6.00000E+00
 -1       126 7.50000E-01 0.00000E+00 6.00000E+00
 -1       132 1.00000E+00 5.00000E-01 5.00000E-01
 -1       133 1.00000E+00 2.50000E-01 1.00000E+00
 -1       134 1.00000E+00 5.00000E-01 1.00000E+00
 -1       135 1.00000E+00 7.50000E-01 1.00000E+00
 -1       136 1.00000E+00 5.00000E-01 1.50000E+00
 -1       137 1.00000E+00 2.50000E-01 2.00000E+00
 -1       138 1.00000E+00 5.00000E-01 2.00000E+00
 -1       139 1.00000E+00 7.50000E-01 2.00000E+00
 -1       140 1.00000E+00 5.00000E-01 2.50000E+00
 -1       141 1.00000E+00 2.50000E-01 3.00000E+00
 -1       142 1.00000E+00 5.00000E-01 3.00000E+00
 -1       143 1.00000E+00 7.50000E-01 3.00000E+00
 -1       144 1.00000E+00 5.00000E-01 3.50000E+00
 -1       145 1.00000E+00 2.50000E-01 4.00000E+00
 -1       146 1.00000E+00 5.00000E-01 4.00000E+00
 -1       147 1.00000E+00 7.50000E-01 4.00000E+00
 -1       148 1.00000E+00 5.00000E-01 4.50000E+00
 -1       149 1.00000E+00 2.50000E-01 5.00000E+00
 -1       150 1.00000E+00 5.00000E-01 5.00000E+00
 -1       151 1.00000E+00 7.50000E-01 5.00000E+00
 -1       152 1.00000E+00 5.00000E-01 5.50000E+00
 -1       153 1.00000E+00 2.50000E-01 6.00000E+00
 -1       154 1.00000E+00 5.00000E-01 6.00000E+00
 -1       155 1.00000E+00 7.50000E-01 6.00000E+00
 -1       161 5.00000E-01 1.00000E+00 5.00000E-01
 -1       162 7.50000E-01 1.00000E+00 1.00000E+00
 -1       163 5.00000E-01 1.00000E+00 1.00000E+00
 -1       164 2.50000E-01 1.00000E+00 1.00000E+00
 -1       165 5.00000E-01 1.00000E+00 1.50000E+00
 -1       166 7.50000E-01 1.00000E+00 2.00000E+00
 -1       167 5.00000E-01 1.00000E+00 2.00000E+00
 -1       168 2.50000E-01 1.00000E+00 2.00000E+00
 -1       169 5.00000E-01 1.00000E+00 2.50000E+00
 -1       170 7.50000E-01 1.00000E+00 3.00000E+00
 -1       171 5.00000E-01 1.00000E+00 3.00000E+00
 -1       172 2.50000E-01 1.00000E+00 3.00000E+00
 -1       173 5.00000E-01 1.00000E+00 3.50000E+00
 -1       174 7.50000E-01 1.00000E+00 4.00000E+00
 -1       175 5.00000E-01 1.00000E+00 4.00000E+00
 -1       176 2.50000E-01 1.00000E+00 4.00000E+00
 -1       177 5.00000E-01 1.00000E+00 4.50000E+00
 -1       178 7.50000E-01 1.00000E+00 5.00000E+00
 -1       179 5.00000E-01 1.00000E+00 5.00000E+00
 -1       180 2.50000E-01 1.00000E+00 5.00000E+00
 -1       181 5.00000E-01 1.00000E+00 5.50000E+00
 -1       182 7.50000E-01 1.00000E+00 6.00000E+00
 -1       183 5.00000E-01 1.00000E+00 6.00000E+00
 -1       184 2.50000E-01 1.00000E+00 6.00000E+00
 -1       190 0.00000E+00 5.00000E-01 5.00000E-01
 -1       191 0.00000E+00 7.50000E-01 1.00000E+00
 -1       192 0.00000E+00 5.00000E-01 1.00000E+00
 -1       193 0.00000E+00 2.50000E-01 1.00000E+00
 -1       194 0.00000E+00 5.00000E-01 1.50000E+00
 -1       195 0.00000E+00 7.50000E-01 2.00000E+00
 -1       196 0.00000E+00 5.00000E-01 2.00000E+00
 -1       197 0.00000E+00 2.50000E-01 2.00000E+00
 -1       198 0.00000E+00 5.00000E-01 2.50000E+00
 -1       199 0.00000E+00 7.50000E-01 3.00000E+00
 -1       200 0.00000E+00 5.00000E-01 3.00000E+00
 -1       201 0.00000E+00 2.50000E-01 3.00000E+00
 -1       202 0.00000E+00 5.00000E-01 3.50000E+00
 -1       203 0.00000E+00 7.50000E-01 4.00000E+00
 -1       204 0.00000E+00 5.00000E-01 4.00000E+00
 -1       205 0.00000E+00 2.50000E-01 4.00000E+00
 -1       206 0.00000E+00 5.00000E-01 4.50000E+00
 -1       207 0.00000E+00 7.50000E-01 5.00000E+00
 -1       208 0.00000E+00 5.00000E-01 5.00000E+00
 -1       209 0.00000E+00 2.50000E-01 5.00000E+00
 -1       210 0.00000E+00 5.00000E-01 5.50000E+00
 -1       211 0.00000E+00 7.50000E-01 6.00000E+00
 -1       212 0.00000E+00 5.00000E-01 6.00000E+00
 -1       213 0.00000E+00 2.50000E-01 6.00000E+00
 -1       219 5.00000E-01 5.00000E-01 5.00000E-01
 -1       220 5.00000E-01 2.50000E-01 1.00000E+00
 -1       221 2.50000E-01 5.00000E-01 1.00000E+00
 -1       222 5.00000E-01 5.00000E-01 1.00000E+00
 -1       223 7.50000E-01 5.00000E-01 1.00000E+00
 -1       224 5.00000E-01 7.50000E-01 1.00000E+00
 -1       225 5.00000E-01 5.00000E-01 1.50000E+00
 -1       226 5.00000E-01 2.50000E-01 2.00000E+00
 -1       227 2.50000E-01 5.00000E-01 2.00000E+00
 -1       228 5.00000E-01 5.00000E-01 2.00000E+00
 -1       229 7.50000E-01 5.00000E-01 2.00000E+00
 -1       230 5.00000E-01 7.50000E-01 2.00000E+00
 -1       231 5.00000E-01 5.00000E-01 2.50000E+00
 -1       232 5.00000E-01 2.50000E-01 3.00000E+00
 -1       233 2.50000E-01 5.00000E-01 3.00000E+00
 -1       234 5.00000E-01 5.00000E-01 3.00000E+00
 -1       235 7.50000E-01 5.00000E-01 3.00000E+00
 -1       236 5.00000E-01 7.50000E-01 3.00000E+00
 -1       237 5.00000E-01 5.00000E-01 3.50000E+00
 -1       238 5.00000E-01 2.50000E-01 4.00000E+00
 -1       239 2.50000E-01 5.00000E-01 4.00000E+00
 -1       240 5.00000E-01 5.00000E-01 4.00000E+00
 -1       241 7.50000E-01 5.00000E-01 4.00000E+00
 -1       242 5.00000E-01 7.50000E-01 4.00000E+00
 -1       243 5.00000E-01 5.00000E-01 4.50000E+00
 -1       244 5.00000E-01 2.50000E-01 5.00000E+00
 -1       245 2.50000E-01 5.00000E-01 5.00000E+00
 -1       246 5.00000E-01 5.00000E-01 5.00000E+00
 -1       247 7.50000E-01 5.00000E-01 5.00000E+00
 -1       248 5.00000E-01 7.50000E-01 5.00000E+00
 -1       249 5.00000E-01 5.00000E-01 5.50000E+00
 -1       250 5.00000E-01 2.50000E-01 6.00000E+00
 -1       251 2.50000E-01 5.00000E-01 6.00000E+00
 -1       252 5.00000E-01 5.00000E-01 6.00000E+00
 -1       253 7.50000E-01 5.00000E-01 6.00000E+00
 -1       254 5.00000E-01 7.50000E-01 6.00000E+00
 -3
    3C                            24                                     1
 -1         1    4    0    1
 -2         1        10        95        19        61       105       222       192         9        93
 -2        94        20        62       103       219       190       104       220       221       193
 -1         2    4    0    1
 -2        10         2        13        95       105        34       134       222        11        12
 -2        96        93       103        33       132       219       106       133       223       220
 -1         3    4    0    1
 -2        19        95        16         4       192       222       163        79        94        97
 -2        17        18       190       219       161        78       221       224       164       191
 -1         4    4    0    1
 -2        95        13         3        16       222       134        64       163        96        14
 -2        15        97       219       132        63       161       223       135       162       224
 -1         5    4    0    1
 -2        61       105       222       192        59       109       228       196       104       220
 -2       221       193        60       107       225       194       108       226       227       197
 -1         6    4    0    1
 -2       105        34       134       222       109        36       138       228       106       133
 -2       223       220       107        35       136       225       110       137       229       226
 -1         7    4    0    1
 -2       192       222       163        79       196       228       167        81       221       224
 -2       164       191       194       225       165        80       227       230       168       195
 -1         8    4    0    1
 -2       222       134        64       163       228       138        66       167       223       135
 -2       162       224       225       136        65       165       229       139       166       230
 -1         9    4    0    1
 -2        59       109       228       196        57       113       234       200       108       226
 -2       227       197        58       111       231       198       112       232       233       201
 -1        10    4    0    1
 -2       109        36       138       228       113        38       142       234       110       137
 -2       229       226       111        37       140       231       114       141       235       232
 -1        11    4    0    1
 -2       196       228       167        81       200       234       171        83       227       230
 -2       168       195       198       231       169        82       233       236       172       199
 -1        12    4    0    1
 -2       228       138        66       167       234       142        68       171       229       139
 -2       166       230       231       140        67       169       235       143       170       236
 -1        13    4    0    1
 -2        57       113       234       200        55       117       240       204       112       232
 -2       233       201        56       115       237       202       116       238       239       205
 -1        14    4    0    1
 -2       113        38       142       234       117        40       146       240       114       141
 -2       235       232       115        39       144       237       118       145       241       238
 -1        15    4    0    1
 -2       200       234       171        83       204       240       175        85       233       236
 -2       172       199       202       237       173        84       239       242       176       203
 -1        16    4    0    1
 -2       234       142        68       171       240       146        70       175       235       143
 -2       170       236       237       144        69       173       241       147       174       242
 -1        17    4    0    1
 -2        55       117       240       204        53       121       246       208       116       238
 -2       239       205        54       119       243       206       120       244       245       209
 -1        18    4    0    1
 -2       117        40       146       240       121        42       150       246       118       145
 -2       241       238       119        41       148       243       122       149       247       244
 -1        19    4    0    1
 -2       204       240       175        85       208       246       179        87       239       242
 -2       176       203       206       243       177        86       245       248       180       207
 -1        20    4    0    1
 -2       240       146        70       175       246       150        72       179       241       147
 -2       174       242       243       148        71       177       247       151       178       248
 -1        21    4    0    1
 -2        53       121       246       208        51       125       252       212       120       244
 -2       245       209        52       123       249       210       124       250       251       213
 -1        22    4    0    1
 -2       121        42       150       246       125        44       154       252       122       149
 -2       247       244       123        43       152       249       126       153       253       250
 -1        23    4    0    1
 -2       208       246       179        87       212       252       183        89       245       248
 -2       180       207       210       249       181        88       251       254       184       211
 -1        24    4    0    1
 -2       246       150        72       179       252       154        74       183       247       151
 -2       178       248       249       152        73       181       253       155       182       254
 -3
    1PSTEP                         1           1           1          
  100CL  101 5.00000E-03         201                     1    1           1
 -4  DISP        4    1
 -5  D1          1    2    1    0
 -5  D2          1    2    2    0
 -5  D3          1    2    3    0
 -5  ALL         1    2    0    0    1ALL
 -1         1 0.00000E+00 0.00000E+00 0.00000E+00
 -1         2 0.00000E+00 0.00000E+00 0.00000E+00
 -1         3 0.00000E+00 0.00000E+00 0.00000E+00
 -1         4 0.00000E+00 0.00000E+00 0.00000E+00
 -1         9 0.00000E+00 0.00000E+00 0.00000E+00
 -1        10 0.00000E+00 0.00000E+00 0.00000E+00
 -1        11 0.00000E+00 0.00000E+00 0.00000E+00
 -1        12 0.00000E+00 0.00000E+00 0.00000E+00
 -1        13 0.00000E+00 0.00000E+00 0.00000E+00
 -1        14 0.00000E+00 0.00000E+00 0.00000E+00
 -1        15 0.00000E+00 0.00000E+00 0.00000E+00
 -1        16 0.00000E+00 0.00000E+00 0.00000E+00
 -1        17 0.00000E+00 0.00000E+00 0.00000E+00
 -1        18 0.00000E+00 0.00000E+00 0.00000E+00
 -1        19 0.00000E+00 0.00000E+00 0.00000E+00
 -1        20 0.00000E+00 0.00000E+00 0.00000E+00
 -1        33 9.21940E-05-1.48605E-04-1.84724E-04
 -1        34 3.87012E-05-4.59741E-04-3.62571E-04
 -1        35 3.57839E-05-9.46389E-04-4.74479E-04
 -1        36 1.29664E-05-1.49788E-03-5.40295E-04
 -1        37-9.43039E-06-2.08393E-03-5.42624E-04
 -1        38-3.71954E-05-2.66473E-03-5.08524E-04
 -1        39-4.61083E-05-3.15308E-03-3.73876E-04
 -1        40-2.75062E-05-3.48805E-03-2.26289E-04
 -1        41-1.15718E-04-3.57375E-03-7.59753E-05
 -1        42-2.39519E-04-3.72942E-03-1.03338E-04
 -1        43 3.22703E-04-3.23326E-03 2.01938E-04
 -1        44 6.80896E-04-2.79610E-03 4.78498E-04
 -1        51-6.81019E-04-2.79614E-03 4.78603E-04
 -1        52-3.22896E-04-3.23324E-03 2.02022E-04
 -1        53 2.39252E-04-3.72942E-03-1.03308E-04
 -1        54 1.15456E-04-3.57374E-03-7.59661E-05
 -1        55 2.72361E-05-3.48805E-03-2.26299E-04
 -1        56 4.58678E-05-3.15307E-03-3.73899E-04
 -1        57 3.69843E-05-2.66472E-03-5.08559E-04
 -1        58 9.26498E-06-2.08393E-03-5.42664E-04
 -1        59-1.30875E-05-1.49788E-03-5.40337E-04
 -1        60-3.58602E-05-9.46392E-04-4.74516E-04
 -1        61-3.87389E-05-4.59744E-04-3.62600E-04
 -1        62-9.22061E-05-1.48613E-04-1.84739E-04
 -1        63-9.01448E-05-1.45824E-04 1.80580E-04
 -1        64-3.83539E-05-4.58691E-04 3.53764E-04
 -1        65-3.22531E-05-9.45321E-04 4.61281E-04
 -1        66-1.17502E-05-1.50503E-03 5.23761E-04
 -1        67 8.69356E-06-2.07154E-03 5.20461E-04
 -1        68 2.81645E-05-2.66245E-03 4.79287E-04
 -1        69 6.69041E-05-3.16718E-03 3.39580E-04
 -1        70 5.73533E-05-3.59146E-03 1.93785E-04
 -1        71 4.61735E-05-3.42300E-03 3.26204E-05
 -1        72 2.13158E-05-3.40098E-03 2.63200E-05
 -1        73 3.49774E-05-3.75930E-03-2.99951E-04
 -1        74-2.53005E-04-3.95680E-03-5.36437E-04
 -1        78 9.01326E-05-1.45817E-04 1.80566E-04
 -1        79 3.83160E-05-4.58688E-04 3.53735E-04
 -1        80 3.21766E-05-9.45318E-04 4.61244E-04
 -1        81 1.16287E-05-1.50503E-03 5.23719E-04
 -1        82-8.85943E-06-2.07154E-03 5.20421E-04
 -1        83-2.83762E-05-2.66245E-03 4.79252E-04
 -1        84-6.71452E-05-3.16719E-03 3.39558E-04
 -1        85-5.76243E-05-3.59146E-03 1.93774E-04
 -1        86-4.64361E-05-3.42300E-03 3.26297E-05
 -1        87-2.15843E-05-3.40098E-03 2.63501E-05
 -1        88-3.51715E-05-3.75932E-03-2.99867E-04
 -1        89 2.52880E-04-3.95676E-03-5.36333E-04
 -1        93 0.00000E+00 0.00000E+00 0.00000E+00
 -1        94 0.00000E+00 0.00000E+00 0.00000E+00
 -1        95 0.00000E+00 0.00000E+00 0.00000E+00
 -1        96 0.00000E+00 0.00000E+00 0.00000E+00
 -1        97 0.00000E+00 0.00000E+00 0.00000E+00
 -1       103-4.16560E-09-1.86054E-04-1.81345E-04
 -1       104-1.97377E-05-4.86294E-04-3.71192E-04
 -1       105-1.82735E-08-4.90685E-04-3.74091E-04
 -1       106 1.97014E-05-4.86292E-04-3.71179E-04
 -1       107-3.74202E-08-9.59565E-04-4.78423E-04
 -1       108-4.54310E-06-1.50595E-03-5.43959E-04
 -1       109-5.97855E-08-1.52043E-03-5.43006E-04
 -1       110 4.42283E-06-1.50595E-03-5.43939E-04
 -1       111-8.37524E-08-2.06561E-03-5.44361E-04
 -1       112 1.11910E-05-2.68353E-03-5.20958E-04
 -1       113-1.03823E-07-2.68112E-03-5.28153E-04
 -1       114-1.14010E-05-2.68353E-03-5.20941E-04
 -1       115-1.23196E-07-3.11809E-03-3.87502E-04
 -1       116 4.06393E-05-3.50105E-03-2.05159E-04
 -1       117-1.30190E-07-3.63118E-03-1.73211E-04
 -1       118-4.09046E-05-3.50105E-03-2.05154E-04
 -1       119-1.38698E-07-3.44604E-03-4.31676E-05
 -1       120 3.49091E-05-3.76707E-03-1.12450E-04
 -1       121-1.21143E-07-3.65964E-03-1.61270E-04
 -1       122-3.51678E-05-3.76707E-03-1.12471E-04
 -1       123-1.06317E-07-3.51410E-03-8.28857E-05
 -1       124-6.55611E-05-3.14537E-03 4.45580E-04
 -1       125-3.56438E-08-3.87380E-03 4.73254E-04
 -1       126 6.54695E-05-3.14535E-03 4.45552E-04
 -1       132 1.13542E-06-9.94294E-05-1.85240E-06
 -1       133 2.04517E-05-4.43385E-04-1.73164E-04
 -1       134 1.21970E-06-4.48676E-04-3.74716E-06
 -1       135-1.91670E-05-4.43194E-04 1.64656E-04
 -1       136 1.60830E-07-9.22477E-04-6.88547E-06
 -1       137 4.83921E-06-1.49577E-03-2.66654E-04
 -1       138 9.59769E-07-1.49172E-03-9.49562E-06
 -1       139-3.32427E-06-1.49798E-03 2.50029E-04
 -1       140 1.93992E-06-2.09329E-03-1.12419E-05
 -1       141-7.45180E-06-2.65251E-03-2.43385E-04
 -1       142 5.72825E-06-2.64663E-03-7.54786E-06
 -1       143 9.61491E-06-2.65662E-03 2.17730E-04
 -1       144-8.81752E-06-3.20799E-03-1.67223E-05
 -1       145-5.66130E-05-3.51534E-03-1.32973E-04
 -1       146-9.79405E-06-3.46713E-03-3.10088E-05
 -1       147 5.19419E-05-3.54808E-03 9.48556E-05
 -1       148 2.36316E-05-3.58417E-03-2.71535E-05
 -1       149 7.31918E-05-3.39501E-03-4.86492E-05
 -1       150 8.40048E-05-3.24911E-03-1.41432E-05
 -1       151-6.25133E-05-3.28808E-03-2.06900E-05
 -1       152-1.26972E-04-3.84034E-03 1.41788E-05
 -1       153-3.55871E-04-3.24061E-03 1.79485E-04
 -1       154-8.41602E-05-2.91424E-03-3.13011E-05
 -1       155 3.06608E-04-3.63075E-03-2.39896E-04
 -1       161-4.21308E-09-1.83946E-04 1.76999E-04
 -1       162-1.93851E-05-4.85080E-04 3.62823E-04
 -1       163-1.83627E-08-4.87192E-04 3.64873E-04
 -1       164 1.93486E-05-4.85078E-04 3.62810E-04
 -1       165-3.75650E-08-9.59265E-04 4.66137E-04
 -1       166-4.57220E-06-1.50205E-03 5.25807E-04
 -1       167-5.99631E-08-1.51486E-03 5.27616E-04
 -1       168 4.45155E-06-1.50205E-03 5.25787E-04
 -1       169-8.39993E-08-2.06621E-03 5.19214E-04
 -1       170 9.84099E-06-2.68298E-03 4.95040E-04
 -1       171-1.04079E-07-2.64498E-03 4.92528E-04
 -1       172-1.00516E-05-2.68298E-03 4.95024E-04
 -1       173-1.23552E-07-3.14126E-03 3.61495E-04
 -1       174 4.27788E-05-3.43957E-03 1.61434E-04
 -1       175-1.30493E-07-3.55769E-03 1.54223E-04
 -1       176-4.30449E-05-3.43957E-03 1.61429E-04
 -1       177-1.39184E-07-3.39442E-03-1.95498E-05
 -1       178-3.86738E-05-3.88375E-03 7.20486E-05
 -1       179-1.21451E-07-3.46096E-03 8.93236E-05
 -1       180 3.84141E-05-3.88375E-03 7.20694E-05
 -1       181-1.07018E-07-3.72404E-03-2.82023E-05
 -1       182 2.77326E-05-2.66546E-03-4.97017E-04
 -1       183-3.55912E-08-4.74677E-03-5.02719E-04
 -1       184-2.78248E-05-2.66545E-03-4.96990E-04
 -1       190-1.15059E-06-9.94294E-05-1.86677E-06
 -1       191 1.91272E-05-4.43193E-04 1.64627E-04
 -1       192-1.25998E-06-4.48676E-04-3.77687E-06
 -1       193-2.04915E-05-4.43387E-04-1.73193E-04
 -1       194-2.38006E-07-9.22477E-04-6.92268E-06
 -1       195 3.20209E-06-1.49798E-03 2.49987E-04
 -1       196-1.08254E-06-1.49172E-03-9.53804E-06
 -1       197-4.96119E-06-1.49577E-03-2.66696E-04
 -1       198-2.10409E-06-2.09329E-03-1.12820E-05
 -1       199-9.82616E-06-2.65662E-03 2.17694E-04
 -1       200-5.94017E-06-2.64663E-03-7.58435E-06
 -1       201 7.24086E-06-2.65251E-03-2.43420E-04
 -1       202 8.58052E-06-3.20799E-03-1.67440E-05
 -1       203-5.22138E-05-3.54808E-03 9.48436E-05
 -1       204 9.52097E-06-3.46713E-03-3.10201E-05
 -1       205 5.63416E-05-3.51534E-03-1.32985E-04
 -1       206-2.38841E-05-3.58417E-03-2.71454E-05
 -1       207 6.22448E-05-3.28808E-03-2.06641E-05
 -1       208-8.42804E-05-3.24911E-03-1.41287E-05
 -1       209-7.34596E-05-3.39501E-03-4.86230E-05
 -1       210 1.26787E-04-3.84034E-03 1.42762E-05
 -1       211-3.06770E-04-3.63073E-03-2.39799E-04
 -1       212 8.39751E-05-2.91424E-03-3.11811E-05
 -1       213 3.55710E-04-3.24062E-03 1.79581E-04
 -1       219-5.67882E-09-1.36598E-04-1.65514E-06
 -1       220-1.90748E-08-4.69912E-04-1.80461E-04
 -1       221-6.21866E-07-4.70741E-04-4.56724E-06
 -1       222-1.90779E-08-4.71469E-04-4.69649E-06
 -1       223 5.83484E-07-4.70741E-04-4.55306E-06
 -1       224-1.91197E-08-4.68001E-04 1.71675E-04
 -1       225-3.82295E-08-9.39151E-04-6.53389E-06
 -1       226-5.96400E-08-1.50678E-03-2.73348E-04
 -1       227-6.10561E-07-1.49007E-03-8.68108E-06
 -1       228-5.94873E-08-1.49182E-03-1.01212E-05
 -1       229 4.89824E-07-1.49007E-03-8.66050E-06
 -1       230-5.97284E-08-1.50435E-03 2.53934E-04
 -1       231-8.39343E-08-2.09612E-03-9.75915E-06
 -1       232-1.02692E-07-2.65650E-03-2.50526E-04
 -1       233-2.80663E-06-2.64633E-03-1.57353E-05
 -1       234-1.01987E-07-2.63511E-03-1.69811E-05
 -1       235 2.59779E-06-2.64633E-03-1.57181E-05
 -1       236-1.02822E-07-2.63744E-03 2.21219E-04
 -1       237-1.22709E-07-3.16685E-03-1.30148E-05
 -1       238-1.27699E-07-3.57516E-03-1.29874E-04
 -1       239 5.81619E-06-3.41299E-03-1.85139E-05
 -1       240-1.26019E-07-3.45218E-03-2.34202E-05
 -1       241-6.07797E-06-3.41299E-03-1.85063E-05
 -1       242-1.27841E-07-3.53850E-03 8.41832E-05
 -1       243-1.39374E-07-3.58401E-03-2.67427E-05
 -1       244-1.16773E-07-3.46258E-03-2.27520E-05
 -1       245-4.24726E-05-3.53211E-03-3.71829E-05
 -1       246-1.13899E-07-3.47879E-03-2.78703E-05
 -1       247 4.22146E-05-3.53211E-03-3.72049E-05
 -1       248-1.16967E-07-3.38206E-03-1.18148E-05
 -1       249-1.05440E-07-3.57170E-03-2.15645E-05
 -1       250-3.18537E-08-4.09377E-03 1.60548E-04
 -1       251 5.32630E-05-2.51000E-03-2.27800E-05
 -1       252-2.90581E-08-3.45700E-03-2.06544E-05
 -1       253-5.33747E-05-2.51000E-03-2.27781E-05
 -1       254-3.16639E-08-4.42765E-03-2.47272E-04
 -3
    1PSTEP                         2           2           1          
  100CL  102 1.00000E-02         201                     1    2           1
 -4  DISP        4    1
 -5  D1          1    2    1    0
 -5  D2          1    2    2    0
 -5  D3          1    2    3    0
 -5  ALL         1    2    0    0    1ALL
 -1         1 0.00000E+00 0.00000E+00 0.00000E+00
 -1         2 0.00000E+00 0.00000E+00 0.00000E+00
 -1         3 0.00000E+00 0.00000E+00 0.00000E+00
 -1         4 0.00000E+00 0.00000E+00 0.00000E+00
 -1         9 0.00000E+00 0.00000E+00 0.00000E+00
 -1        10 0.00000E+00 0.00000E+00 0.00000E+00
 -1        11 0.00000E+00 0.00000E+00 0.00000E+00
 -1        12 0.00000E+00 0.00000E+00 0.00000E+00
 -1        13 0.00000E+00 0.00000E+00 0.00000E+00
 -1        14 0.00000E+00 0.00000E+00 0.00000E+00
 -1        15 0.00000E+00 0.00000E+00 0.00000E+00
 -1        16 0.00000E+00 0.00000E+00 0.00000E+00
 -1        17 0.00000E+00 0.00000E+00 0.00000E+00
 -1        18 0.00000E+00 0.00000E+00 0.00000E+00
 -1        19 0.00000E+00 0.00000E+00 0.00000E+00
 -1        20 0.00000E+00 0.00000E+00 0.00000E+00
 -1        33-4.66487E-05 7.63814E-05 9.40025E-05
 -1        34-1.92004E-05 2.35445E-04 1.83040E-04
 -1        35-1.77571E-05 4.85662E-04 2.39902E-04
 -1        36-6.15986E-06 7.65612E-04 2.71362E-04
 -1        37 5.80571E-06 1.06915E-03 2.71316E-04
 -1        38 2.14128E-05 1.36271E-03 2.45853E-04
 -1        39 2.48758E-05 1.60853E-03 1.80732E-04
 -1        40 1.30357E-05 1.77403E-03 9.91232E-05
 -1        41 5.73959E-05 1.82730E-03 2.64097E-05
 -1        42 1.09940E-04 1.84979E-03-2.29416E-05
 -1        43-1.18775E-04 1.64824E-03-1.43840E-04
 -1        44-4.18117E-04 1.36637E-03-2.52977E-04
 -1        51 4.18150E-04 1.36631E-03-2.52974E-04
 -1        52 1.18802E-04 1.64821E-03-1.43833E-04
 -1        53-1.09915E-04 1.84973E-03-2.29406E-05
 -1        54-5.73793E-05 1.82727E-03 2.64114E-05
 -1        55-1.30224E-05 1.77399E-03 9.91196E-05
 -1        56-2.48630E-05 1.60851E-03 1.80730E-04
 -1        57-2.14023E-05 1.36268E-03 2.45850E-04
 -1        58-5.79592E-06 1.06913E-03 2.71314E-04
 -1        59 6.16800E-06 7.65597E-04 2.71359E-04
 -1        60 1.77642E-05 4.85651E-04 2.39900E-04
 -1        61 1.92054E-05 2.35437E-04 1.83039E-04
 -1        62 4.66513E-05 7.63778E-05 9.40019E-05
 -1        63 4.66364E-05 7.63656E-05-9.39782E-05
 -1        64 1.91975E-05 2.35437E-04-1.82989E-04
 -1        65 1.77373E-05 4.85651E-04-2.39825E-04
 -1        66 6.14261E-06 7.65648E-04-2.71263E-04
 -1        67-5.83535E-06 1.06911E-03-2.71187E-04
 -1        68-2.13791E-05 1.36269E-03-2.45689E-04
 -1        69-2.48762E-05 1.60848E-03-1.80537E-04
 -1        70-1.30870E-05 1.77440E-03-9.89248E-05
 -1        71-5.76837E-05 1.82719E-03-2.61630E-05
 -1        72-1.09276E-04 1.84860E-03 2.33265E-05
 -1        73 1.19613E-04 1.64816E-03 1.44343E-04
 -1        74 4.20645E-04 1.36717E-03 2.53312E-04
 -1        78-4.66403E-05 7.63628E-05-9.39791E-05