    1C
    1UUSER                                                              
    1UDATE              18.july.2018                                    
    1UTIME              00:43:29                                        
    1UHOST                                                              
    1UPGM               CalculiX                                        
    1UVERSION           Version 2.13                             
    1UCOMPILETIME       jue jun 14 00:40:39 CEST 2018                    
    1UDIR                                                               
    1UDBN                                                               
    1UMAT    1EL                                                        
    2C                            81                                     1
 -1         5 0.00000E+00 0.00000E+00 8.00000E+00
 -1         6 1.00000E+00 0.00000E+00 8.00000E+00
 -1         7 1.00000E+00 1.00000E+00 8.00000E+00
 -1         8 0.00000E+00 1.00000E+00 8.00000E+00
 -1        21 2.50000E-01 0.00000E+00 8.00000E+00
 -1        22 5.00000E-01 0.00000E+00 8.00000E+00
 -1        23 7.50000E-01 0.00000E+00 8.00000E+00
 -1        24 1.00000E+00 2.50000E-01 8.00000E+00
 -1        25 1.00000E+00 5.00000E-01 8.00000E+00
 -1        26 1.00000E+00 7.50000E-01 8.00000E+00
 -1        27 7.50000E-01 1.00000E+00 8.00000E+00
 -1        28 5.00000E-01 1.00000E+00 8.00000E+00
 -1        29 2.50000E-01 1.00000E+00 8.00000E+00
 -1        30 0.00000E+00 7.50000E-01 8.00000E+00
 -1        31 0.00000E+00 5.00000E-01 8.00000E+00
 -1        32 0.00000E+00 2.50000E-01 8.00000E+00
 -1        44 1.00000E+00 0.00000E+00 6.00000E+00
 -1        45 1.00000E+00 0.00000E+00 6.50000E+00
 -1        46 1.00000E+00 0.00000E+00 7.00000E+00
 -1        47 1.00000E+00 0.00000E+00 7.50000E+00
 -1        48 0.00000E+00 0.00000E+00 7.50000E+00
 -1        49 0.00000E+00 0.00000E+00 7.00000E+00
 -1        50 0.00000E+00 0.00000E+00 6.50000E+00
 -1        51 0.00000E+00 0.00000E+00 6.00000E+00
 -1        74 1.00000E+00 1.00000E+00 6.00000E+00
 -1        75 1.00000E+00 1.00000E+00 6.50000E+00
 -1        76 1.00000E+00 1.00000E+00 7.00000E+00
 -1        77 1.00000E+00 1.00000E+00 7.50000E+00
 -1        89 0.00000E+00 1.00000E+00 6.00000E+00
 -1        90 0.00000E+00 1.00000E+00 6.50000E+00
 -1        91 0.00000E+00 1.00000E+00 7.00000E+00
 -1        92 0.00000E+00 1.00000E+00 7.50000E+00
 -1        98 5.00000E-01 2.50000E-01 8.00000E+00
 -1        99 2.50000E-01 5.00000E-01 8.00000E+00
 -1       100 5.00000E-01 5.00000E-01 8.00000E+00
 -1       101 7.50000E-01 5.00000E-01 8.00000E+00
 -1       102 5.00000E-01 7.50000E-01 8.00000E+00
 -1       124 2.50000E-01 0.00000E+00 6.00000E+00
 -1       125 5.00000E-01 0.00000E+00 6.00000E+00
 -1       126 7.50000E-01 0.00000E+00 6.00000E+00
 -1       127 5.00000E-01 0.00000E+00 6.50000E+00
 -1       128 2.50000E-01 0.00000E+00 7.00000E+00
 -1       129 5.00000E-01 0.00000E+00 7.00000E+00
 -1       130 7.50000E-01 0.00000E+00 7.00000E+00
 -1       131 5.00000E-01 0.00000E+00 7.50000E+00
 -1       153 1.00000E+00 2.50000E-01 6.00000E+00
 -1       154 1.00000E+00 5.00000E-01 6.00000E+00
 -1       155 1.00000E+00 7.50000E-01 6.00000E+00
 -1       156 1.00000E+00 5.00000E-01 6.50000E+00
 -1       157 1.00000E+00 2.50000E-01 7.00000E+00
 -1       158 1.00000E+00 5.00000E-01 7.00000E+00
 -1       159 1.00000E+00 7.50000E-01 7.00000E+00
 -1       160 1.00000E+00 5.00000E-01 7.50000E+00
 -1       182 7.50000E-01 1.00000E+00 6.00000E+00
 -1       183 5.00000E-01 1.00000E+00 6.00000E+00
 -1       184 2.50000E-01 1.00000E+00 6.00000E+00
 -1       185 5.00000E-01 1.00000E+00 6.50000E+00
 -1       186 7.50000E-01 1.00000E+00 7.00000E+00
 -1       187 5.00000E-01 1.00000E+00 7.00000E+00
 -1       188 2.50000E-01 1.00000E+00 7.00000E+00
 -1       189 5.00000E-01 1.00000E+00 7.50000E+00
 -1       211 0.00000E+00 7.50000E-01 6.00000E+00
 -1       212 0.00000E+00 5.00000E-01 6.00000E+00
 -1       213 0.00000E+00 2.50000E-01 6.00000E+00
 -1       214 0.00000E+00 5.00000E-01 6.50000E+00
 -1       215 0.00000E+00 7.50000E-01 7.00000E+00
 -1       216 0.00000E+00 5.00000E-01 7.00000E+00
 -1       217 0.00000E+00 2.50000E-01 7.00000E+00
 -1       218 0.00000E+00 5.00000E-01 7.50000E+00
 -1       250 5.00000E-01 2.50000E-01 6.00000E+00
 -1       251 2.50000E-01 5.00000E-01 6.00000E+00
 -1       252 5.00000E-01 5.00000E-01 6.00000E+00
 -1       253 7.50000E-01 5.00000E-01 6.00000E+00
 -1       254 5.00000E-01 7.50000E-01 6.00000E+00
 -1       255 5.00000E-01 5.00000E-01 6.50000E+00
 -1       256 5.00000E-01 2.50000E-01 7.00000E+00
 -1       257 2.50000E-01 5.00000E-01 7.00000E+00
 -1       258 5.00000E-01 5.00000E-01 7.00000E+00
 -1       259 7.50000E-01 5.00000E-01 7.00000E+00
 -1       260 5.00000E-01 7.50000E-01 7.00000E+00
 -1       261 5.00000E-01 5.00000E-01 7.50000E+00
 -3
    3C                             8                                     1
 -1        25    4    0    1
 -2        51       125       252       212        49       129       258       216       124       250
 -2       251       213        50       127       255       214       128       256       257       217
 -1        26    4    0    1
 -2       125        44       154       252       129        46       158       258       126       153
 -2       253       250       127        45       156       255       130       157       259       256
 -1        27    4    0    1
 -2       212       252       183        89       216       258       187        91       251       254
 -2       184       211       214       255       185        90       257       260       188       215
 -1        28    4    0    1
 -2       252       154        74       183       258       158        76       187       253       155
 -2       182       254       255       156        75       185       259       159       186       260
 -1        29    4    0    1
 -2        49       129       258       216         5        22       100        31       128       256
 -2       257       217        48       131       261       218        21        98        99        32
 -1        30    4    0    1
 -2       129        46       158       258        22         6        25       100       130       157
 -2       259       256       131        47       160       261        23        24       101        98
 -1        31    4    0    1
 -2       216       258       187        91        31       100        28         8       257       260
 -2       188       215       218       261       189        92        99       102        29        30
 -1        32    4    0    1
 -2       258       158        76       187       100        25         7        28       259       159
 -2       186       260       261       160        77       189       101        26        27       102
 -3
    1PSTEP                         1           1           1          
  100CL  101 5.00000E-03          81                     1    1           1
 -4  DISP        4    1
 -5  D1          1    2    1    0
 -5  D2          1    2    2    0
 -5  D3          1    2    3    0
 -5  ALL         1    2    0    0    1ALL
 -1         5 0.00000E+00 0.00000E+00 0.00000E+00
 -1         6 0.00000E+00 0.00000E+00 0.00000E+00
 -1         7 0.00000E+00 0.00000E+00 0.00000E+00
 -1         8 0.00000E+00 0.00000E+00 0.00000E+00
 -1        21 0.00000E+00 0.00000E+00 0.00000E+00
 -1        22 0.00000E+00 0.00000E+00 0.00000E+00
 -1        23 0.00000E+00 0.00000E+00 0.00000E+00
 -1        24 0.00000E+00 0.00000E+00 0.00000E+00
 -1        25 0.00000E+00 0.00000E+00 0.00000E+00
 -1        26 0.00000E+00 0.00000E+00 0.00000E+00
 -1        27 0.00000E+00 0.00000E+00 0.00000E+00
 -1        28 0.00000E+00 0.00000E+00 0.00000E+00
 -1        29 0.00000E+00 0.00000E+00 0.00000E+00
 -1        30 0.00000E+00 0.00000E+00 0.00000E+00
 -1        31 0.00000E+00 0.00000E+00 0.00000E+00
 -1        32 0.00000E+00 0.00000E+00 0.00000E+00
 -1        44 6.82167E-04-2.79629E-03 4.78913E-04
 -1        45 3.28798E-04-2.30076E-03 6.58591E-04
 -1        46-2.20506E-04-1.76347E-03 8.53927E-04
 -1        47 1.24905E-04-7.03722E-04 4.61083E-04
 -1        48-1.24872E-04-7.03682E-04 4.61022E-04
 -1        49 2.20680E-04-1.76343E-03 8.53770E-04
 -1        50-3.28460E-04-2.30075E-03 6.58321E-04
 -1        51-6.81378E-04-2.79618E-03 4.78425E-04
 -1        74-2.57675E-04-3.95282E-03-5.36409E-04
 -1        75 1.63349E-05-2.82821E-03-6.70869E-04
 -1        76 2.66476E-05-1.51018E-03-8.65751E-04
 -1        77-2.23177E-04-5.28573E-04-4.70257E-04
 -1        89 2.58463E-04-3.95294E-03-5.36896E-04
 -1        90-1.59974E-05-2.82822E-03-6.71139E-04
 -1        91-2.64735E-05-1.51022E-03-8.65907E-04
 -1        92 2.23210E-04-5.28613E-04-4.70318E-04
 -1        98 0.00000E+00 0.00000E+00 0.00000E+00
 -1        99 0.00000E+00 0.00000E+00 0.00000E+00
 -1       100 0.00000E+00 0.00000E+00 0.00000E+00
 -1       101 0.00000E+00 0.00000E+00 0.00000E+00
 -1       102 0.00000E+00 0.00000E+00 0.00000E+00
 -1       124-6.32014E-05-3.14544E-03 4.45620E-04
 -1       125 3.09669E-07-3.87516E-03 4.73277E-04
 -1       126 6.38827E-05-3.14548E-03 4.45788E-04
 -1       127 1.90726E-07-2.57580E-03 9.45011E-04
 -1       128 3.48365E-05-1.80103E-03 9.13274E-04
 -1       129 5.65815E-08-1.69816E-03 9.45734E-04
 -1       130-3.46952E-05-1.80106E-03 9.13370E-04
 -1       131 8.16809E-09-6.85606E-04 4.66584E-04
 -1       153-3.56458E-04-3.24394E-03 1.79795E-04
 -1       154-8.46615E-05-2.91679E-03-3.11873E-05
 -1       155 3.09550E-04-3.63056E-03-2.39706E-04
 -1       156-1.20386E-04-2.88831E-03-7.91613E-05
 -1       157 7.75887E-05-1.46288E-03 3.70995E-04
 -1       158 8.91863E-05-1.37480E-03-2.87293E-05
 -1       159-3.23836E-05-1.39545E-03-3.90294E-04
 -1       160 3.88045E-05-5.33826E-04 1.39529E-06
 -1       182 2.63747E-05-2.66718E-03-4.97170E-04
 -1       183 3.09692E-07-4.74669E-03-5.02966E-04
 -1       184-2.56938E-05-2.66723E-03-4.97339E-04
 -1       185 1.90502E-07-2.85608E-03-9.18369E-04
 -1       186-2.21480E-05-2.02735E-03-9.64061E-04
 -1       187 5.66704E-08-1.70176E-03-9.81462E-04
 -1       188 2.22892E-05-2.02738E-03-9.64157E-04
 -1       189 8.13355E-09-6.58721E-04-4.68185E-04
 -1       211-3.08727E-04-3.63061E-03-2.40130E-04
 -1       212 8.54806E-05-2.91679E-03-3.16129E-05
 -1       213 3.57281E-04-3.24389E-03 1.79370E-04
 -1       214 1.20741E-04-2.88831E-03-7.94263E-05
 -1       215 3.25688E-05-1.39547E-03-3.90462E-04
 -1       216-8.89959E-05-1.37480E-03-2.88914E-05
 -1       217-7.74034E-05-1.46285E-03 3.70827E-04
 -1       218-3.87520E-05-5.33827E-04 1.34099E-06
 -1       250 3.21598E-07-4.09249E-03 1.60476E-04
 -1       251 5.28672E-05-2.51025E-03-2.28714E-05
 -1       252 3.28980E-07-3.45779E-03-2.07473E-05
 -1       253-5.21482E-05-2.51025E-03-2.27415E-05
 -1       254 3.21743E-07-4.42843E-03-2.47611E-04
 -1       255 2.00399E-07-2.63166E-03-3.50442E-05
 -1       256 6.25234E-08-1.53757E-03 3.88334E-04
 -1       257-5.03579E-05-1.67646E-03-9.84242E-06
 -1       258 6.38906E-08-1.62516E-03-1.71711E-05
 -1       259 5.05133E-05-1.67646E-03-9.74292E-06
 -1       260 6.25402E-08-1.55842E-03-4.24303E-04
 -1       261 1.79700E-08-6.58504E-04-3.56914E-06
 -3
    1PSTEP                         2           2           1          
  100CL  102 1.00000E-02          81                     1    2           1
 -4  DISP        4    1
 -5  D1          1    2    1    0
 -5  D2          1    2    2    0
 -5  D3          1    2    3    0
 -5  ALL         1    2    0    0    1ALL
 -1         5 0.00000E+00 0.00000E+00 0.00000E+00
 -1         6 0.00000E+00 0.00000E+00 0.00000E+00
 -1         7 0.00000E+00 0.00000E+00 0.00000E+00
 -1         8 0.00000E+00 0.00000E+00 0.00000E+00
 -1        21 0.00000E+00 0.00000E+00 0.00000E+00
 -1        22 0.00000E+00 0.00000E+00 0.00000E+00
 -1        23 0.00000E+00 0.00000E+00 0.00000E+00
 -1        24 0.00000E+00 0.00000E+00 0.00000E+00
 -1        25 0.00000E+00 0.00000E+00 0.00000E+00
 -1        26 0.00000E+00 0.00000E+00 0.00000E+00
 -1        27 0.00000E+00 0.00000E+00 0.00000E+00
 -1        28 0.00000E+00 0.00000E+00 0.00000E+00
 -1        29 0.00000E+00 0.00000E+00 0.00000E+00
 -1        30 0.00000E+00 0.00000E+00 0.00000E+00
 -1        31 0.00000E+00 0.00000E+00 0.00000E+00
 -1        32 0.00000E+00 0.00000E+00 0.00000E+00
 -1        44-4.05009E-04 1.38014E-03-2.52824E-04
 -1        45-1.14639E-04 1.19107E-03-3.17474E-04
 -1        46 1.00972E-04 8.68583E-04-3.83912E-04
 -1        47-7.02433E-05 3.74738E-04-2.50174E-04
 -1        48 7.02522E-05 3.74742E-04-2.50175E-04
 -1        49-1.00963E-04 8.68581E-04-3.83903E-04
 -1        50 1.14665E-04 1.19108E-03-3.17536E-04
 -1        51 4.05015E-04 1.38022E-03-2.52894E-04
 -1        74 4.23744E-04 1.36577E-03 2.53050E-04
 -1        75 1.24622E-04 1.18225E-03 3.17473E-04
 -1        76-1.06039E-04 8.73209E-04 3.83961E-04
 -1        77 6.74393E-05 3.77086E-04 2.50230E-04
 -1        89-4.23693E-04 1.36581E-03 2.53089E-04
 -1        90-1.24622E-04 1.18224E-03 3.17483E-04
 -1        91 1.06075E-04 8.73215E-04 3.83936E-04
 -1        92-6.74377E-05 3.77089E-04 2.50232E-04
 -1        98 0.00000E+00 0.00000E+00 0.00000E+00
 -1        99 0.00000E+00 0.00000E+00 0.00000E+00
 -1       100 0.00000E+00 0.00000E+00 0.00000E+00
 -1       101 0.00000E+00 0.00000E+00 0.00000E+00
 -1       102 0.00000E+00 0.00000E+00 0.00000E+00
 -1       124 2.26525E-05 1.51965E-03-2.34463E-04
 -1       125 4.40409E-08 1.92132E-03-2.44722E-04
 -1       126-2.26031E-05 1.51960E-03-2.34450E-04
 -1       127 2.19052E-09 1.32610E-03-4.42234E-04
 -1       128-4.65236E-06 8.90439E-04-4.45610E-04
 -1       129 1.55948E-08 8.24629E-04-4.71664E-04
 -1       130 4.67071E-06 8.90441E-04-4.45609E-04
 -1       131 1.78654E-09 3.59540E-04-2.34593E-04
 -1       153 2.94322E-04 1.80183E-03-1.04602E-04
 -1       154 4.74488E-06 1.89720E-03 1.43673E-07
 -1       155-3.01496E-04 1.79171E-03 1.04937E-04
 -1       156 4.94094E-07 1.45278E-03-7.17212E-07
 -1       157-6.18395E-05 7.58384E-04-1.72784E-04
 -1       158-8.45566E-07 7.33449E-04-1.04811E-07
 -1       159 6.32902E-05 7.61317E-04 1.73193E-04
 -1       160-2.68676E-07 2.52804E-04-9.50125E-08
 -1       182 3.44858E-05 1.52412E-03 2.34665E-04
 -1       183-3.08725E-08 1.91823E-03 2.44863E-04
 -1       184-3.44872E-05 1.52417E-03 2.34689E-04
 -1       185 2.41407E-08 1.32827E-03 4.44353E-04
 -1       186-7.69831E-06 8.90021E-04 4.45553E-04
 -1       187-7.40490E-09 8.25120E-04 4.72372E-04
 -1       188 7.70826E-06 8.90016E-04 4.45541E-04
 -1       189 4.87216E-09 3.59399E-04 2.34783E-04
 -1       211 3.01519E-04 1.79174E-03 1.04926E-04
 -1       212-4.76421E-06 1.89727E-03 1.33592E-07
 -1       213-2.94313E-04 1.80191E-03-1.04575E-04
 -1       214-4.49541E-07 1.45279E-03-7.22915E-07
 -1       215-6.32734E-05 7.61326E-04 1.73184E-04
 -1       216 8.43841E-07 7.33454E-04-1.10781E-07
 -1       217 6.18400E-05 7.58382E-04-1.72798E-04
 -1       218 2.77174E-07 2.52804E-04-1.07699E-07
 -1       250 4.87532E-08 1.93254E-03-9.96840E-05
 -1       251 1.57171E-06 1.19255E-03 1.44849E-07
 -1       252 4.30262E-08 1.72986E-03 9.61802E-08
 -1       253-1.53308E-06 1.19251E-03 1.94051E-07
 -1       254-3.74210E-09 1.93835E-03 9.99320E-05
 -1       255 5.85710E-09 1.37225E-03 1.84741E-07
 -1       256 1.48064E-08 7.58658E-04-2.08611E-04
 -1       257-3.79329E-07 9.01696E-04 1.90527E-07
 -1       258 1.54084E-08 7.60694E-04 8.37576E-08
 -1       259 3.93614E-07 9.01694E-04 1.83303E-07
 -1       260 5.98226E-09 7.57346E-04 2.08518E-04
 -1       261-1.35380E-10 3.27283E-04 1.86339E-08
 -3
    1PSTEP                         3           3           1          
  100CL  103 1.50000E-02          81                     1    3           1
 -4  DISP        4    1
 -5  D1          1    2    1    0
 -5  D2          1    2    2    0
 -5  D3          1    2    3    0
 -5  ALL         1    2    0    0    1ALL
 -1         5 0.00000E+00 0.00000E+00 0.00000E+00
 -1         6 0.00000E+00 0.00000E+00 0.00000E+00
 -1         7 0.00000E+00 0.00000E+00 0.00000E+00
 -1         8 0.00000E+00 0.00000E+00 0.00000E+00
 -1        21 0.00000E+00 0.00000E+00 0.00000E+00
 -1        22 0.00000E+00 0.00000E+00 0.00000E+00
 -1        23 0.00000E+00 0.00000E+00 0.00000E+00
 -1        24 0.00000E+00 0.00000E+00 0.00000E+00
 -1        25 0.00000E+00 0.00000E+00 0.00000E+00
 -1        26 0.00000E+00 0.00000E+00 0.00000E+00
 -1        27 0.00000E+00 0.00000E+00 0.00000E+00
 -1        28 0.00000E+00 0.00000E+00 0.00000E+00
 -1        29 0.00000E+00 0.00000E+00 0.00000E+00
 -1        30 0.00000E+00 0.00000E+00 0.00000E+00
 -1        31 0.00000E+00 0.00000E+00 0.00000E+00
 -1        32 0.00000E+00 0.00000E+00 0.00000E+00
 -1        44 3.29022E-04-1.08597E-03 2.00426E-04
 -1        45 9.43291E-05-9.39697E-04 2.51508E-04
 -1        46-8.16683E-05-6.89931E-04 3.03659E-04
 -1        47 5.45561E-05-2.98296E-04 1.98434E-04
 -1        48-5.45665E-05-2.98297E-04 1.98439E-04
 -1        49 8.16345E-05-6.89914E-04 3.03668E-04
 -1        50-9.43512E-05-9.39718E-04 2.51536E-04
 -1        51-3.29067E-04-1.08595E-03 2.00410E-04
 -1        74-3.34088E-04-1.08156E-03-2.00422E-04
 -1        75-9.72036E-05-9.37032E-04-2.51475E-04
 -1        76 8.40112E-05-6.92189E-04-3.03650E-04
 -1        77-5.37055E-05-2.99091E-04-1.98444E-04
 -1        89 3.34093E-04-1.08151E-03-2.00416E-04
 -1        90 9.71790E-05-9.37028E-04-2.51451E-04
 -1        91-8.40376E-05-6.92185E-04-3.03639E-04
 -1        92 5.36972E-05-2.99092E-04-1.98445E-04
 -1        98 0.00000E+00 0.00000E+00 0.00000E+00
 -1        99 0.00000E+00 0.00000E+00 0.00000E+00
 -1       100 0.00000E+00 0.00000E+00 0.00000E+00
 -1       101 0.00000E+00 0.00000E+00 0.00000E+00
 -1       102 0.00000E+00 0.00000E+00 0.00000E+00
 -1       124-2.48288E-05-1.20584E-03 1.85839E-04
 -1       125-1.46734E-08-1.51883E-03 1.94027E-04
 -1       126 2.47890E-05-1.20587E-03 1.85863E-04
 -1       127-1.93010E-08-1.05136E-03 3.50691E-04
 -1       128 5.15767E-06-7.04641E-04 3.52769E-04
 -1       129-8.61870E-09-6.53162E-04 3.73753E-04
 -1       130-5.18185E-06-7.04646E-04 3.52760E-04
 -1       131-5.94624E-09-2.84946E-04 1.85822E-04
 -1       153-2.37104E-04-1.42312E-03 8.30344E-05
 -1       154-1.23253E-06-1.50838E-03 1.28263E-08
 -1       155 2.39025E-04-1.42746E-03-8.30316E-05
 -1       156-1.50065E-08-1.15053E-03 2.40515E-07
 -1       157 4.98217E-05-6.02952E-04 1.36756E-04
 -1       158-1.40211E-07-5.82008E-04 5.38679E-08
 -1       159-5.02680E-05-6.02503E-04-1.36842E-04
 -1       160 6.44985E-08-2.00182E-04 6.38428E-08
 -1       182-2.07048E-05-1.20732E-03-1.85865E-04
 -1       183-3.10935E-09-1.51731E-03-1.94020E-04
 -1       184 2.06980E-05-1.20730E-03-1.85858E-04
 -1       185-1.03277E-08-1.05187E-03-3.51213E-04
 -1       186 4.74019E-06-7.04331E-04-3.52701E-04
 -1       187-1.16075E-08-6.52609E-04-3.73913E-04
 -1       188-4.76306E-06-7.04327E-04-3.52696E-04
 -1       189-4.82477E-09-2.84953E-04-1.85967E-04
 -1       211-2.38982E-04-1.42742E-03-8.30849E-05
 -1       212 1.31679E-06-1.50839E-03-2.63254E-08
 -1       213 2.37106E-04-1.42314E-03 8.30096E-05
 -1       214-5.60477E-08-1.15051E-03 2.37283E-07
 -1       215 5.02603E-05-6.02510E-04-1.36824E-04
 -1       216 1.50419E-07-5.82017E-04 6.22321E-08
 -1       217-4.98303E-05-6.02944E-04 1.36764E-04
 -1       218-7.90216E-08-2.00180E-04 8.62654E-08
 -1       250-3.31865E-08-1.53236E-03 7.91028E-05
 -1       251 3.12895E-06-9.44475E-04 3.80034E-08
 -1       252-5.85319E-08-1.36858E-03 2.62127E-08
 -1       253-3.15731E-06-9.44464E-04-2.98213E-08
 -1       254-3.05520E-08-1.52647E-03-7.90686E-05
 -1       255-1.75663E-09-1.08760E-03-1.97696E-08
 -1       256-1.88442E-08-5.99855E-04 1.65376E-04
 -1       257-5.07145E-07-7.14970E-04-4.69016E-08
 -1       258-2.72093E-08-6.02027E-04-6.83847E-09
 -1       259 4.85756E-07-7.14966E-04-3.08418E-08
 -1       260-1.95586E-08-6.00742E-04-1.65318E-04
 -1       261-4.57192E-10-2.59318E-04-1.53650E-09
 -3
    1PSTEP                         4           4           1          
  100CL  104 2.00000E-02          81                     1    4           1
 -4  DISP        4    1
 -5  D1          1    2    1    0
 -5  D2          1    2    2    0
 -5  D3          1    2    3    0
 -5  ALL         1    2    0    0    1ALL
 -1         5 0.00000E+00 0.00000E+00 0.00000E+00
 -1         6 0.00000E+00 0.00000E+00 0.00000E+00
 -1         7 0.00000E+00 0.00000E+00 0.00000E+00
 -1         8 0.00000E+00 0.00000E+00 0.00000E+00
 -1        21 0.00000E+00 0.00000E+00 0.00000E+00
 -1        22 0.00000E+00 0.00000E+00 0.00000E+00
 -1        23 0.00000E+00 0.00000E+00 0.00000E+00
 -1        24 0.00000E+00 0.00000E+00 0.00000E+00
 -1        25 0.00000E+00 0.00000E+00 0.00000E+00
 -1        26 0.00000E+00 0.00000E+00 0.00000E+00
 -1        27 0.00000E+00 0.00000E+00 0.00000E+00
 -1        28 0.00000E+00 0.00000E+00 0.00000E+00
 -1        29 0.00000E+00 0.00000E+00 0.00000E+00
 -1        30 0.00000E+00 0.00000E+00 0.00000E+00
 -1        31 0.00000E+00 0.00000E+00 0.00000E+00
 -1        32 0.00000E+00 0.00000E+00 0.00000E+00
 -1        44-2.54629E-04 8.43368E-04-1.55531E-04
 -1        45-7.27122E-05 7.29619E-04-1.95225E-04
 -1        46 6.32628E-05 5.35429E-04-2.35586E-04
 -1        47-4.24525E-05 2.31483E-04-1.54042E-04
 -1        48 4.24495E-05 2.31478E-04-1.54027E-04
 -1        49-6.32549E-05 5.35448E-04-2.35578E-04
 -1        50 7.26857E-05 7.29596E-04-1.95207E-04
 -1        51 2.54590E-04 8.43436E-04-1.55551E-04
 -1        74 2.60967E-04 8.37083E-04 1.55488E-04
 -1        75 7.63068E-05 7.26067E-04 1.95173E-04
 -1        76-6.56348E-05 5.37750E-04 2.35564E-04
 -1        77 4.14048E-05 2.32511E-04 1.54042E-04
 -1        89-2.60989E-04 8.37134E-04 1.55532E-04
 -1        90-7.63104E-05 7.26050E-04 1.95171E-04
 -1        91 6.56318E-05 5.37770E-04 2.35571E-04
 -1        92-4.14010E-05 2.32512E-04 1.54034E-04
 -1        98 0.00000E+00 0.00000E+00 0.00000E+00
 -1        99 0.00000E+00 0.00000E+00 0.00000E+00
 -1       100 0.00000E+00 0.00000E+00 0.00000E+00
 -1       101 0.00000E+00 0.00000E+00 0.00000E+00
 -1       102 0.00000E+00 0.00000E+00 0.00000E+00
 -1       124 1.77556E-05 9.35633E-04-1.44266E-04
 -1       125-4.67605E-08 1.17849E-03-1.50614E-04
 -1       126-1.78210E-05 9.35602E-04-1.44268E-04
 -1       127-5.32370E-09 8.15898E-04-2.71931E-04
 -1       128-3.71560E-06 5.46857E-04-2.73730E-04
 -1       129-3.94135E-09 5.06773E-04-2.89996E-04
 -1       130 3.71571E-06 5.46847E-04-2.73731E-04
 -1       131 1.35396E-09 2.21200E-04-1.44202E-04
 -1       153 1.83821E-04 1.10627E-03-6.44921E-05
 -1       154 1.27307E-06 1.17150E-03-7.19336E-08
 -1       155-1.86164E-04 1.10648E-03 6.44481E-05
 -1       156-8.22627E-08 8.92712E-04-3.46088E-07
 -1       157-3.86261E-05 4.67805E-04-1.06073E-04
 -1       158 3.53166E-08 4.51925E-04-8.65716E-08
 -1       159 3.91280E-05 4.68128E-04 1.06146E-04
 -1       160-3.39784E-08 1.55366E-04-5.45475E-08
 -1       182 1.75704E-05 9.37706E-04 1.44211E-04
 -1       183 1.15801E-08 1.17607E-03 1.50602E-04
 -1       184-1.75699E-05 9.37728E-04 1.44221E-04
 -1       185-9.52019E-09 8.16191E-04 2.72614E-04
 -1       186-4.04843E-06 5.46350E-04 2.73632E-04
 -1       187 4.88441E-09 5.06602E-04 2.90161E-04
 -1       188 4.05195E-06 5.46361E-04 2.73638E-04
 -1       189 1.29768E-09 2.21232E-04 1.44310E-04
 -1       211 1.86114E-04 1.10647E-03 6.44664E-05
 -1       212-1.38504E-06 1.17145E-03-6.76996E-10
 -1       213-1.83912E-04 1.10627E-03-6.44180E-05
 -1       214 8.89681E-08 8.92742E-04-3.23729E-07
 -1       215-3.91434E-05 4.68129E-04 1.06160E-04
 -1       216-5.64767E-08 4.51904E-04-7.99910E-08
 -1       217 3.86217E-05 4.67804E-04-1.06076E-04
 -1       218 3.67761E-08 1.55369E-04-5.97640E-08
 -1       250-2.35939E-08 1.18728E-03-6.13914E-05
 -1       251-1.42754E-06 7.32950E-04-1.20679E-09
 -1       252-2.49107E-11 1.06151E-03 5.28189E-09
 -1       253 1.38049E-06 7.32988E-04 9.87141E-09
 -1       254 6.19827E-09 1.18458E-03 6.13489E-05
 -1       255-1.44277E-08 8.44149E-04 1.61990E-09
 -1       256 1.17867E-09 4.65748E-04-1.28378E-04
 -1       257 1.53944E-07 5.54946E-04 4.79562E-08
 -1       258 6.97163E-09 4.67097E-04-1.92157E-09
 -1       259-1.58095E-07 5.54955E-04 3.37371E-08
 -1       260 5.83087E-09 4.66023E-04 1.28289E-04
 -1       261-8.54853E-10 2.01268E-04 3.93466E-10
 -3
    1PSTEP                         5           5           1          
  100CL  105 2.50000E-02          81                     1    5           1
 -4  DISP        4    1
 -5  D1          1    2    1    0
 -5  D2          1    2    2    0
 -5  D3          1    2    3    0
 -5  ALL         1    2    0    0    1ALL
 -1         5 0.00000E+00 0.00000E+00 0.00000E+00
 -1         6 0.00000E+00 0.00000E+00 0.00000E+00
 -1         7 0.00000E+00 0.00000E+00 0.00000E+00
 -1         8 0.00000E+00 0.00000E+00 0.00000E+00
 -1        21 0.00000E+00 0.00000E+00 0.00000E+00
 -1        22 0.00000E+00 0.00000E+00 0.00000E+00
 -1        23 0.00000E+00 0.00000E+00 0.00000E+00
 -1        24 0.00000E+00 0.00000E+00 0.00000E+00
 -1        25 0.00000E+00 0.00000E+00 0.00000E+00
 -1        26 0.00000E+00 0.00000E+00 0.00000E+00
 -1        27 0.00000E+00 0.00000E+00 0.00000E+00
 -1        28 0.00000E+00 0.00000E+00 0.00000E+00
 -1        29 0.00000E+00 0.00000E+00 0.00000E+00
 -1        30 0.00000E+00 0.00000E+00 0.00000E+00
 -1        31 0.00000E+00 0.00000E+00 0.00000E+00
 -1        32 0.00000E+00 0.00000E+00 0.00000E+00
 -1        44 1.94141E-04-6.34883E-04 1.17415E-04
 -1        45 5.58255E-05-5.49940E-04 1.47374E-04
 -1        46-4.82073E-05-4.04665E-04 1.77832E-04
 -1        47 3.17887E-05-1.75036E-04 1.16320E-04
 -1        48-3.17854E-05-1.75036E-04 1.16312E-04
 -1        49 4.82169E-05-4.04668E-04 1.77821E-04
 -1        50-5.57979E-05-5.49949E-04 1.47378E-04
 -1        51-1.94104E-04-6.34912E-04 1.17418E-04
 -1        74-1.95960E-04-6.33028E-04-1.17386E-04
 -1        75-5.69220E-05-5.48832E-04-1.47351E-04
 -1        76 4.92607E-05-4.05703E-04-1.77827E-04
 -1        77-3.14473E-05-1.75376E-04-1.16320E-04
 -1        89 1.95982E-04-6.33045E-04-1.17419E-04
 -1        90 5.69347E-05-5.48830E-04-1.47361E-04
 -1        91-4.92621E-05-4.05715E-04-1.77829E-04
 -1        92 3.14474E-05-1.75381E-04-1.16323E-04
 -1        98 0.00000E+00 0.00000E+00 0.00000E+00
 -1        99 0.00000E+00 0.00000E+00 0.00000E+00
 -1       100 0.00000E+00 0.00000E+00 0.00000E+00
 -1       101 0.00000E+00 0.00000E+00 0.00000E+00
 -1       102 0.00000E+00 0.00000E+00 0.00000E+00
 -1       124-1.46768E-05-7.06952E-04 1.08894E-04
 -1       125 1.66927E-08-8.89225E-04 1.13737E-04
 -1       126 1.47096E-05-7.06944E-04 1.08911E-04
 -1       127 8.97561E-09-6.16087E-04 2.05509E-04
 -1       128 3.10099E-06-4.12700E-04 2.06651E-04
 -1       129 6.79826E-09-3.82648E-04 2.19012E-04
 -1       130-3.08869E-06-4.12698E-04 2.06652E-04
 -1       131 1.41242E-09-1.66989E-04 1.08870E-04
 -1       153-1.39581E-04-8.34186E-04 4.86802E-05
 -1       154-4.62902E-07-8.85050E-04-2.86217E-08
 -1       155 1.40260E-04-8.36765E-04-4.86980E-05
 -1       156 6.86612E-08-6.74053E-04 9.68175E-08
 -1       157 2.93405E-05-3.53481E-04 8.00868E-05
 -1       158-1.27460E-07-3.41195E-04 2.89230E-08
 -1       159-2.95010E-05-3.53158E-04-8.01108E-05
 -1       160 2.19950E-08-1.17245E-04 3.74809E-08
 -1       182-1.20865E-05-7.07593E-04-1.08910E-04
 -1       183 1.63757E-08-8.88354E-04-1.13725E-04
 -1       184 1.21103E-05-7.07614E-04-1.08922E-04
 -1       185 1.50533E-09-6.16212E-04-2.05705E-04
 -1       186 2.77531E-06-4.12536E-04-2.06612E-04
 -1       187 4.60070E-09-3.82387E-04-2.19059E-04
 -1       188-2.77090E-06-4.12539E-04-2.06615E-04
 -1       189-1.21864E-09-1.67023E-04-1.08940E-04
 -1       211-1.40254E-04-8.36772E-04-4.86971E-05
 -1       212 4.66889E-07-8.85062E-04-5.03261E-09
 -1       213 1.39596E-04-8.34211E-04 4.86686E-05
 -1       214-5.15996E-08-6.74063E-04 9.15830E-08
 -1       215 2.95041E-05-3.53167E-04-8.01166E-05
 -1       216 1.32331E-07-3.41198E-04 2.04516E-08
 -1       217-2.93319E-05-3.53483E-04 8.00819E-05
 -1       218-1.88826E-08-1.17247E-04 3.41613E-08
 -1       250 1.25814E-08-8.96991E-04 4.63600E-05
 -1       251 1.68551E-06-5.53301E-04 9.16684E-10
 -1       252 7.01342E-09-8.01516E-04-6.28110E-09
 -1       253-1.67437E-06-5.53295E-04-5.57346E-09
 -1       254 1.49190E-08-8.93637E-04-4.63153E-05
 -1       255 5.30340E-09-6.37420E-04-1.09572E-08
 -1       256 5.33350E-09-3.51433E-04 9.69233E-05
 -1       257-2.58053E-07-4.19046E-04-1.79503E-08
 -1       258 4.14471E-09-3.52567E-04 1.62866E-09
 -1       259 2.64001E-07-4.19044E-04-1.50980E-08
 -1       260 3.77488E-09-3.51960E-04-9.69013E-05
 -1       261 1.64013E-09-1.51931E-04 3.61063E-09
 -3
    1PSTEP                         6           6           1          
  100CL  106 3.00000E-02          81                     1    6           1
 -4  DISP        4    1
 -5  D1          1    2    1    0
 -5  D2          1    2    2    0
 -5  D3          1    2    3    0
 -5  ALL         1    2    0    0    1ALL
 -1         5 0.00000E+00 0.00000E+00 0.00000E+00
 -1         6 0.00000E+00 0.00000E+00 0.00000E+00
 -1         7 0.00000E+00 0.00000E+00 0.00000E+00
 -1         8 0.00000E+00 0.00000E+00 0.00000E+00
 -1        21 0.00000E+00 0.00000E+00 0.00000E+00
 -1        22 0.00000E+00 0.00000E+00 0.00000E+00
 -1        23 0.00000E+00 0.00000E+00 0.00000E+00
 -1        24 0.00000E+00 0.00000E+00 0.00000E+00
 -1        25 0.00000E+00 0.00000E+00 0.00000E+00
 -1        26 0.00000E+00 0.00000E+00 0.00000E+00
 -1        27 0.00000E+00 0.00000E+00 0.00000E+00
 -1        28 0.00000E+00 0.00000E+00 0.00000E+00
 -1        29 0.00000E+00 0.00000E+00 0.00000E+00
 -1        30 0.00000E+00 0.00000E+00 0.00000E+00
 -1        31 0.00000E+00 0.00000E+00 0.00000E+00
 -1        32 0.00000E+00 0.00000E+00 0.00000E+00
 -1        44-1.42626E-04 4.57893E-04-8.51849E-05
 -1        45-4.15883E-05 3.97540E-04-1.06892E-04
 -1        46 3.57939E-05 2.94495E-04-1.29020E-04
 -1        47-2.27357E-05 1.27345E-04-8.43655E-05