    1C
    1UUSER                                                              
    1UDATE              18.july.2018                                    
    1UTIME              00:41:14                                        
    1UHOST                                                              
    1UPGM               CalculiX                                        
    1UVERSION           Version 2.13                             
    1UCOMPILETIME       jue jun 14 00:40:39 CEST 2018                    
    1UDIR                                                               
    1UDBN                                                               
    1UMAT    1EL                                                        
    2C                           201                                     1
 -1         1 0.00000E+00 0.00000E+00 0.00000E+00
 -1         2 1.00000E+00 0.00000E+00 0.00000E+00
 -1         3 1.00000E+00 1.00000E+00 0.00000E+00
 -1         4 0.00000E+00 1.00000E+00 0.00000E+00
 -1         9 2.50000E-01 0.00000E+00 0.00000E+00
 -1        10 5.00000E-01 0.00000E+00 0.00000E+00
 -1        11 7.50000E-01 0.00000E+00 0.00000E+00
 -1        12 1.00000E+00 2.50000E-01 0.00000E+00
 -1        13 1.00000E+00 5.00000E-01 0.00000E+00
 -1        14 1.00000E+00 7.50000E-01 0.00000E+00
 -1        15 7.50000E-01 1.00000E+00 0.00000E+00
 -1        16 5.00000E-01 1.00000E+00 0.00000E+00
 -1        17 2.50000E-01 1.00000E+00 0.00000E+00
 -1        18 0.00000E+00 7.50000E-01 0.00000E+00
 -1        19 0.00000E+00 5.00000E-01 0.00000E+00
 -1        20 0.00000E+00 2.50000E-01 0.00000E+00
 -1        33 1.00000E+00 0.00000E+00 5.00000E-01
 -1        34 1.00000E+00 0.00000E+00 1.00000E+00
 -1        35 1.00000E+00 0.00000E+00 1.50000E+00
 -1        36 1.00000E+00 0.00000E+00 2.00000E+00
 -1        37 1.00000E+00 0.00000E+00 2.50000E+00
 -1        38 1.00000E+00 0.00000E+00 3.00000E+00
 -1        39 1.00000E+00 0.00000E+00 3.50000E+00
 -1        40 1.00000E+00 0.00000E+00 4.00000E+00
 -1        41 1.00000E+00 0.00000E+00 4.50000E+00
 -1        42 1.00000E+00 0.00000E+00 5.00000E+00
 -1        43 1.00000E+00 0.00000E+00 5.50000E+00
 -1        44 1.00000E+00 0.00000E+00 6.00000E+00
 -1        51 0.00000E+00 0.00000E+00 6.00000E+00
 -1        52 0.00000E+00 0.00000E+00 5.50000E+00
 -1        53 0.00000E+00 0.00000E+00 5.00000E+00
 -1        54 0.00000E+00 0.00000E+00 4.50000E+00
 -1        55 0.00000E+00 0.00000E+00 4.00000E+00
 -1        56 0.00000E+00 0.00000E+00 3.50000E+00
 -1        57 0.00000E+00 0.00000E+00 3.00000E+00
 -1        58 0.00000E+00 0.00000E+00 2.50000E+00
 -1        59 0.00000E+00 0.00000E+00 2.00000E+00
 -1        60 0.00000E+00 0.00000E+00 1.50000E+00
 -1        61 0.00000E+00 0.00000E+00 1.00000E+00
 -1        62 0.00000E+00 0.00000E+00 5.00000E-01
 -1        63 1.00000E+00 1.00000E+00 5.00000E-01
 -1        64 1.00000E+00 1.00000E+00 1.00000E+00
 -1        65 1.00000E+00 1.00000E+00 1.50000E+00
 -1        66 1.00000E+00 1.00000E+00 2.00000E+00
 -1        67 1.00000E+00 1.00000E+00 2.50000E+00
 -1        68 1.00000E+00 1.00000E+00 3.00000E+00
 -1        69 1.00000E+00 1.00000E+00 3.50000E+00
 -1        70 1.00000E+00 1.00000E+00 4.00000E+00
 -1        71 1.00000E+00 1.00000E+00 4.50000E+00
 -1        72 1.00000E+00 1.00000E+00 5.00000E+00
 -1        73 1.00000E+00 1.00000E+00 5.50000E+00
 -1        74 1.00000E+00 1.00000E+00 6.00000E+00
 -1        78 0.00000E+00 1.00000E+00 5.00000E-01
 -1        79 0.00000E+00 1.00000E+00 1.00000E+00
 -1        80 0.00000E+00 1.00000E+00 1.50000E+00
 -1        81 0.00000E+00 1.00000E+00 2.00000E+00
 -1        82 0.00000E+00 1.00000E+00 2.50000E+00
 -1        83 0.00000E+00 1.00000E+00 3.00000E+00
 -1        84 0.00000E+00 1.00000E+00 3.50000E+00
 -1        85 0.00000E+00 1.00000E+00 4.00000E+00
 -1        86 0.00000E+00 1.00000E+00 4.50000E+00
 -1        87 0.00000E+00 1.00000E+00 5.00000E+00
 -1        88 0.00000E+00 1.00000E+00 5.50000E+00
 -1        89 0.00000E+00 1.00000E+00 6.00000E+00
 -1        93 5.00000E-01 2.50000E-01 0.00000E+00
 -1        94 2.50000E-01 5.00000E-01 0.00000E+00
 -1        95 5.00000E-01 5.00000E-01 0.00000E+00
 -1        96 7.50000E-01 5.00000E-01 0.00000E+00
 -1        97 5.00000E-01 7.50000E-01 0.00000E+00
 -1       103 5.00000E-01 0.00000E+00 5.00000E-01
 -1       104 2.50000E-01 0.00000E+00 1.00000E+00
 -1       105 5.00000E-01 0.00000E+00 1.00000E+00
 -1       106 7.50000E-01 0.00000E+00 1.00000E+00
 -1       107 5.00000E-01 0.00000E+00 1.50000E+00
 -1       108 2.50000E-01 0.00000E+00 2.00000E+00
 -1       109 5.00000E-01 0.00000E+00 2.00000E+00
 -1       110 7.50000E-01 0.00000E+00 2.00000E+00
 -1       111 5.00000E-01 0.00000E+00 2.50000E+00
 -1       112 2.50000E-01 0.00000E+00 3.00000E+00
 -1       113 5.00000E-01 0.00000E+00 3.00000E+00
 -1       114 7.50000E-01 0.00000E+00 3.00000E+00
 -1       115 5.00000E-01 0.00000E+00 3.50000E+00
 -1       116 2.50000E-01 0.00000E+00 4.00000E+00
 -1       117 5.00000E-01 0.00000E+00 4.00000E+00
 -1       118 7.50000E-01 0.00000E+00 4.00000E+00
 -1       119 5.00000E-01 0.00000E+00 4.50000E+00
 -1       120 2.50000E-01 0.00000E+00 5.00000E+00
 -1       121 5.00000E-01 0.00000E+00 5.00000E+00
 -1       122 7.50000E-01 0.00000E+00 5.00000E+00
 -1       123 5.00000E-01 0.00000E+00 5.50000E+00
 -1       124 2.50000E-01 0.00000E+00 6.00000E+00
 -1       125 5.00000E-01 0.00000E+00 6.00000E+00
 -1       126 7.50000E-01 0.00000E+00 6.00000E+00
 -1       132 1.00000E+00 5.00000E-01 5.00000E-01
 -1       133 1.00000E+00 2.50000E-01 1.00000E+00
 -1       134 1.00000E+00 5.00000E-01 1.00000E+00
 -1       135 1.00000E+00 7.50000E-01 1.00000E+00
 -1       136 1.00000E+00 5.00000E-01 1.50000E+00
 -1       137 1.00000E+00 2.50000E-01 2.00000E+00
 -1       138 1.00000E+00 5.00000E-01 2.00000E+00
 -1       139 1.00000E+00 7.50000E-01 2.00000E+00
 -1       140 1.00000E+00 5.00000E-01 2.50000E+00
 -1       141 1.00000E+00 2.50000E-01 3.00000E+00
 -1       142 1.00000E+00 5.00000E-01 3.00000E+00
 -1       143 1.00000E+00 7.50000E-01 3.00000E+00
 -1       144 1.00000E+00 5.00000E-01 3.50000E+00
 -1       145 1.00000E+00 2.50000E-01 4.00000E+00
 -1       146 1.00000E+00 5.00000E-01 4.00000E+00
 -1       147 1.00000E+00 7.50000E-01 4.00000E+00
 -1       148 1.00000E+00 5.00000E-01 4.50000E+00
 -1       149 1.00000E+00 2.50000E-01 5.00000E+00
 -1       150 1.00000E+00 5.00000E-01 5.00000E+00
 -1       151 1.00000E+00 7.50000E-01 5.00000E+00
 -1       152 1.00000E+00 5.00000E-01 5.50000E+00
 -1       153 1.00000E+00 2.50000E-01 6.00000E+00
 -1       154 1.00000E+00 5.00000E-01 6.00000E+00
 -1       155 1.00000E+00 7.50000E-01 6.00000E+00
 -1       161 5.00000E-01 1.00000E+00 5.00000E-01
 -1       162 7.50000E-01 1.00000E+00 1.00000E+00
 -1       163 5.00000E-01 1.00000E+00 1.00000E+00
 -1       164 2.50000E-01 1.00000E+00 1.00000E+00
 -1       165 5.00000E-01 1.00000E+00 1.50000E+00
 -1       166 7.50000E-01 1.00000E+00 2.00000E+00
 -1       167 5.00000E-01 1.00000E+00 2.00000E+00
 -1       168 2.50000E-01 1.00000E+00 2.00000E+00
 -1       169 5.00000E-01 1.00000E+00 2.50000E+00
 -1       170 7.50000E-01 1.00000E+00 3.00000E+00
 -1       171 5.00000E-01 1.00000E+00 3.00000E+00
 -1       172 2.50000E-01 1.00000E+00 3.00000E+00
 -1       173 5.00000E-01 1.00000E+00 3.50000E+00
 -1       174 7.50000E-01 1.00000E+00 4.00000E+00
 -1       175 5.00000E-01 1.00000E+00 4.00000E+00
 -1       176 2.50000E-01 1.00000E+00 4.00000E+00
 -1       177 5.00000E-01 1.00000E+00 4.50000E+00
 -1       178 7.50000E-01 1.00000E+00 5.00000E+00
 -1       179 5.00000E-01 1.00000E+00 5.00000E+00
 -1       180 2.50000E-01 1.00000E+00 5.00000E+00
 -1       181 5.00000E-01 1.00000E+00 5.50000E+00
 -1       182 7.50000E-01 1.00000E+00 6.00000E+00
 -1       183 5.00000E-01 1.00000E+00 6.00000E+00
 -1       184 2.50000E-01 1.00000E+00 6.00000E+00
 -1       190 0.00000E+00 5.00000E-01 5.00000E-01
 -1       191 0.00000E+00 7.50000E-01 1.00000E+00
 -1       192 0.00000E+00 5.00000E-01 1.00000E+00
 -1       193 0.00000E+00 2.50000E-01 1.00000E+00
 -1       194 0.00000E+00 5.00000E-01 1.50000E+00
 -1       195 0.00000E+00 7.50000E-01 2.00000E+00
 -1       196 0.00000E+00 5.00000E-01 2.00000E+00
 -1       197 0.00000E+00 2.50000E-01 2.00000E+00
 -1       198 0.00000E+00 5.00000E-01 2.50000E+00
 -1       199 0.00000E+00 7.50000E-01 3.00000E+00
 -1       200 0.00000E+00 5.00000E-01 3.00000E+00
 -1       201 0.00000E+00 2.50000E-01 3.00000E+00
 -1       202 0.00000E+00 5.00000E-01 3.50000E+00
 -1       203 0.00000E+00 7.50000E-01 4.00000E+00
 -1       204 0.00000E+00 5.00000E-01 4.00000E+00
 -1       205 0.00000E+00 2.50000E-01 4.00000E+00
 -1       206 0.00000E+00 5.00000E-01 4.50000E+00
 -1       207 0.00000E+00 7.50000E-01 5.00000E+00
 -1       208 0.00000E+00 5.00000E-01 5.00000E+00
 -1       209 0.00000E+00 2.50000E-01 5.00000E+00
 -1       210 0.00000E+00 5.00000E-01 5.50000E+00
 -1       211 0.00000E+00 7.50000E-01 6.00000E+00
 -1       212 0.00000E+00 5.00000E-01 6.00000E+00
 -1       213 0.00000E+00 2.50000E-01 6.00000E+00
 -1       219 5.00000E-01 5.00000E-01 5.00000E-01
 -1       220 5.00000E-01 2.50000E-01 1.00000E+00
 -1       221 2.50000E-01 5.00000E-01 1.00000E+00
 -1       222 5.00000E-01 5.00000E-01 1.00000E+00
 -1       223 7.50000E-01 5.00000E-01 1.00000E+00
 -1       224 5.00000E-01 7.50000E-01 1.00000E+00
 -1       225 5.00000E-01 5.00000E-01 1.50000E+00
 -1       226 5.00000E-01 2.50000E-01 2.00000E+00
 -1       227 2.50000E-01 5.00000E-01 2.00000E+00
 -1       228 5.00000E-01 5.00000E-01 2.00000E+00
 -1       229 7.50000E-01 5.00000E-01 2.00000E+00
 -1       230 5.00000E-01 7.50000E-01 2.00000E+00
 -1       231 5.00000E-01 5.00000E-01 2.50000E+00
 -1       232 5.00000E-01 2.50000E-01 3.00000E+00
 -1       233 2.50000E-01 5.00000E-01 3.00000E+00
 -1       234 5.00000E-01 5.00000E-01 3.00000E+00
 -1       235 7.50000E-01 5.00000E-01 3.00000E+00
 -1       236 5.00000E-01 7.50000E-01 3.00000E+00
 -1       237 5.00000E-01 5.00000E-01 3.50000E+00
 -1       238 5.00000E-01 2.50000E-01 4.00000E+00
 -1       239 2.50000E-01 5.00000E-01 4.00000E+00
 -1       240 5.00000E-01 5.00000E-01 4.00000E+00
 -1       241 7.50000E-01 5.00000E-01 4.00000E+00
 -1       242 5.00000E-01 7.50000E-01 4.00000E+00
 -1       243 5.00000E-01 5.00000E-01 4.50000E+00
 -1       244 5.00000E-01 2.50000E-01 5.00000E+00
 -1       245 2.50000E-01 5.00000E-01 5.00000E+00
 -1       246 5.00000E-01 5.00000E-01 5.00000E+00
 -1       247 7.50000E-01 5.00000E-01 5.00000E+00
 -1       248 5.00000E-01 7.50000E-01 5.00000E+00
 -1       249 5.00000E-01 5.00000E-01 5.50000E+00
 -1       250 5.00000E-01 2.50000E-01 6.00000E+00
 -1       251 2.50000E-01 5.00000E-01 6.00000E+00
 -1       252 5.00000E-01 5.00000E-01 6.00000E+00
 -1       253 7.50000E-01 5.00000E-01 6.00000E+00
 -1       254 5.00000E-01 7.50000E-01 6.00000E+00
 -3
    3C                            24                                     1
 -1         1    4    0    1
 -2         1        10        95        19        61       105       222       192         9        93
 -2        94        20        62       103       219       190       104       220       221       193
 -1         2    4    0    1
 -2        10         2        13        95       105        34       134       222        11        12
 -2        96        93       103        33       132       219       106       133       223       220
 -1         3    4    0    1
 -2        19        95        16         4       192       222       163        79        94        97
 -2        17        18       190       219       161        78       221       224       164       191
 -1         4    4    0    1
 -2        95        13         3        16       222       134        64       163        96        14
 -2        15        97       219       132        63       161       223       135       162       224
 -1         5    4    0    1
 -2        61       105       222       192        59       109       228       196       104       220
 -2       221       193        60       107       225       194       108       226       227       197
 -1         6    4    0    1
 -2       105        34       134       222       109        36       138       228       106       133
 -2       223       220       107        35       136       225       110       137       229       226
 -1         7    4    0    1
 -2       192       222       163        79       196       228       167        81       221       224
 -2       164       191       194       225       165        80       227       230       168       195
 -1         8    4    0    1
 -2       222       134        64       163       228       138        66       167       223       135
 -2       162       224       225       136        65       165       229       139       166       230
 -1         9    4    0    1
 -2        59       109       228       196        57       113       234       200       108       226
 -2       227       197        58       111       231       198       112       232       233       201
 -1        10    4    0    1
 -2       109        36       138       228       113        38       142       234       110       137
 -2       229       226       111        37       140       231       114       141       235       232
 -1        11    4    0    1
 -2       196       228       167        81       200       234       171        83       227       230
 -2       168       195       198       231       169        82       233       236       172       199
 -1        12    4    0    1
 -2       228       138        66       167       234       142        68       171       229       139
 -2       166       230       231       140        67       169       235       143       170       236
 -1        13    4    0    1
 -2        57       113       234       200        55       117       240       204       112       232
 -2       233       201        56       115       237       202       116       238       239       205
 -1        14    4    0    1
 -2       113        38       142       234       117        40       146       240       114       141
 -2       235       232       115        39       144       237       118       145       241       238
 -1        15    4    0    1
 -2       200       234       171        83       204       240       175        85       233       236
 -2       172       199       202       237       173        84       239       242       176       203
 -1        16    4    0    1
 -2       234       142        68       171       240       146        70       175       235       143
 -2       170       236       237       144        69       173       241       147       174       242
 -1        17    4    0    1
 -2        55       117       240       204        53       121       246       208       116       238
 -2       239       205        54       119       243       206       120       244       245       209
 -1        18    4    0    1
 -2       117        40       146       240       121        42       150       246       118       145
 -2       241       238       119        41       148       243       122       149       247       244
 -1        19    4    0    1
 -2       204       240       175        85       208       246       179        87       239       242
 -2       176       203       206       243       177        86       245       248       180       207
 -1        20    4    0    1
 -2       240       146        70       175       246       150        72       179       241       147
 -2       174       242       243       148        71       177       247       151       178       248
 -1        21    4    0    1
 -2        53       121       246       208        51       125       252       212       120       244
 -2       245       209        52       123       249       210       124       250       251       213
 -1        22    4    0    1
 -2       121        42       150       246       125        44       154       252       122       149
 -2       247       244       123        43       152       249       126       153       253       250
 -1        23    4    0    1
 -2       208       246       179        87       212       252       183        89       245       248
 -2       180       207       210       249       181        88       251       254       184       211
 -1        24    4    0    1
 -2       246       150        72       179       252       154        74       183       247       151
 -2       178       248       249       152        73       181       253       155       182       254
 -3
    1PSTEP                         1           1           1          
  100CL  101 5.00000E-03         201                     1    1           1
 -4  DISP        4    1
 -5  D1          1    2    1    0
 -5  D2          1    2    2    0
 -5  D3          1    2    3    0
 -5  ALL         1    2    0    0    1ALL
 -1         1 0.00000E+00 0.00000E+00 0.00000E+00
 -1         2 0.00000E+00 0.00000E+00 0.00000E+00
 -1         3 0.00000E+00 0.00000E+00 0.00000E+00
 -1         4 0.00000E+00 0.00000E+00 0.00000E+00
 -1         9 0.00000E+00 0.00000E+00 0.00000E+00
 -1        10 0.00000E+00 0.00000E+00 0.00000E+00
 -1        11 0.00000E+00 0.00000E+00 0.00000E+00
 -1        12 0.00000E+00 0.00000E+00 0.00000E+00
 -1        13 0.00000E+00 0.00000E+00 0.00000E+00
 -1        14 0.00000E+00 0.00000E+00 0.00000E+00
 -1        15 0.00000E+00 0.00000E+00 0.00000E+00
 -1        16 0.00000E+00 0.00000E+00 0.00000E+00
 -1        17 0.00000E+00 0.00000E+00 0.00000E+00
 -1        18 0.00000E+00 0.00000E+00 0.00000E+00
 -1        19 0.00000E+00 0.00000E+00 0.00000E+00
 -1        20 0.00000E+00 0.00000E+00 0.00000E+00
 -1        33 9.21811E-05-1.48575E-04-1.84689E-04
 -1        34 3.87210E-05-4.59650E-04-3.62509E-04
 -1        35 3.58255E-05-9.46180E-04-4.74385E-04
 -1        36 1.30440E-05-1.49757E-03-5.40184E-04
 -1        37-9.31862E-06-2.08344E-03-5.42489E-04
 -1        38-3.70117E-05-2.66414E-03-5.08425E-04
 -1        39-4.59395E-05-3.15230E-03-3.73751E-04
 -1        40-2.73957E-05-3.48735E-03-2.26145E-04
 -1        41-1.15511E-04-3.57266E-03-7.57463E-05
 -1        42-2.38988E-04-3.72838E-03-1.03557E-04
 -1        43 3.22883E-04-3.23215E-03 2.01701E-04
 -1        44 6.79370E-04-2.79640E-03 4.78416E-04
 -1        51-6.79322E-04-2.79638E-03 4.78370E-04
 -1        52-3.22805E-04-3.23216E-03 2.01663E-04
 -1        53 2.39101E-04-3.72838E-03-1.03570E-04
 -1        54 1.15620E-04-3.57266E-03-7.57506E-05
 -1        55 2.75094E-05-3.48735E-03-2.26141E-04
 -1        56 4.60405E-05-3.15231E-03-3.73742E-04
 -1        57 3.71009E-05-2.66414E-03-5.08410E-04
 -1        58 9.38845E-06-2.08344E-03-5.42473E-04
 -1        59-1.29927E-05-1.49757E-03-5.40166E-04
 -1        60-3.57932E-05-9.46179E-04-4.74369E-04
 -1        61-3.87050E-05-4.59649E-04-3.62497E-04
 -1        62-9.21759E-05-1.48571E-04-1.84682E-04
 -1        63-9.01201E-05-1.45786E-04 1.80532E-04
 -1        64-3.83250E-05-4.58597E-04 3.53677E-04
 -1        65-3.21828E-05-9.45117E-04 4.61159E-04
 -1        66-1.16476E-05-1.50473E-03 5.23623E-04
 -1        67 8.78388E-06-2.07103E-03 5.20313E-04
 -1        68 2.82216E-05-2.66183E-03 4.79193E-04
 -1        69 6.72033E-05-3.16653E-03 3.39479E-04
 -1        70 5.78532E-05-3.59094E-03 1.93682E-04
 -1        71 4.57930E-05-3.42145E-03 3.24966E-05
 -1        72 2.00180E-05-3.39896E-03 2.67185E-05
 -1        73 3.74742E-05-3.76042E-03-2.99549E-04
 -1        74-2.46845E-04-3.96064E-03-5.36199E-04
 -1        78 9.01251E-05-1.45789E-04 1.80538E-04
 -1        79 3.83409E-05-4.58599E-04 3.53689E-04
 -1        80 3.22149E-05-9.45118E-04 4.61175E-04
 -1        81 1.16986E-05-1.50473E-03 5.23640E-04
 -1        82-8.71441E-06-2.07103E-03 5.20330E-04
 -1        83-2.81329E-05-2.66183E-03 4.79208E-04
 -1        84-6.71027E-05-3.16653E-03 3.39488E-04
 -1        85-5.77402E-05-3.59094E-03 1.93686E-04
 -1        86-4.56846E-05-3.42144E-03 3.24924E-05
 -1        87-1.99067E-05-3.39896E-03 2.67053E-05
 -1        88-3.73967E-05-3.76041E-03-2.99587E-04
 -1        89 2.46892E-04-3.96066E-03-5.36246E-04
 -1        93 0.00000E+00 0.00000E+00 0.00000E+00
 -1        94 0.00000E+00 0.00000E+00 0.00000E+00
 -1        95 0.00000E+00 0.00000E+00 0.00000E+00
 -1        96 0.00000E+00 0.00000E+00 0.00000E+00
 -1        97 0.00000E+00 0.00000E+00 0.00000E+00
 -1       103 1.79161E-09-1.86013E-04-1.81302E-04
 -1       104-1.97057E-05-4.86194E-04-3.71095E-04
 -1       105 7.75963E-09-4.90586E-04-3.74005E-04
 -1       106 1.97211E-05-4.86195E-04-3.71101E-04
 -1       107 1.58804E-08-9.59349E-04-4.78297E-04
 -1       108-4.46401E-06-1.50563E-03-5.43809E-04
 -1       109 2.52754E-08-1.52010E-03-5.42861E-04
 -1       110 4.51492E-06-1.50563E-03-5.43818E-04
 -1       111 3.54199E-08-2.06513E-03-5.44220E-04
 -1       112 1.13649E-05-2.68296E-03-5.20793E-04
 -1       113 4.37128E-08-2.68057E-03-5.28019E-04
 -1       114-1.12763E-05-2.68296E-03-5.20800E-04
 -1       115 5.18870E-08-3.11729E-03-3.87300E-04
 -1       116 4.07084E-05-3.50028E-03-2.05058E-04
 -1       117 5.43802E-08-3.63027E-03-1.73040E-04
 -1       118-4.05971E-05-3.50027E-03-2.05060E-04
 -1       119 5.81206E-08-3.44514E-03-4.31663E-05
 -1       120 3.55555E-05-3.76630E-03-1.12432E-04
 -1       121 4.99492E-08-3.65935E-03-1.61250E-04
 -1       122-3.54475E-05-3.76630E-03-1.12422E-04
 -1       123 4.37104E-08-3.51242E-03-8.27233E-05
 -1       124-6.72145E-05-3.14499E-03 4.45299E-04
 -1       125 1.13611E-08-3.87183E-03 4.73182E-04
 -1       126 6.72476E-05-3.14499E-03 4.45310E-04
 -1       132 1.14394E-06-9.94109E-05-1.85805E-06
 -1       133 2.04737E-05-4.43293E-04-1.73141E-04
 -1       134 1.24613E-06-4.48574E-04-3.75884E-06
 -1       135-1.91344E-05-4.43099E-04 1.64607E-04
 -1       136 2.14254E-07-9.22282E-04-6.90179E-06
 -1       137 4.92979E-06-1.49544E-03-2.66606E-04
 -1       138 1.04954E-06-1.49136E-03-9.51370E-06
 -1       139-3.24818E-06-1.49766E-03 2.49959E-04
 -1       140 2.05322E-06-2.09284E-03-1.12427E-05
 -1       141-7.31938E-06-2.65192E-03-2.43337E-04
 -1       142 5.86540E-06-2.64598E-03-7.53349E-06
 -1       143 9.79876E-06-2.65598E-03 2.17670E-04
 -1       144-8.64956E-06-3.20723E-03-1.67205E-05
 -1       145-5.63177E-05-3.51434E-03-1.32891E-04
 -1       146-9.53260E-06-3.46605E-03-3.10320E-05
 -1       147 5.19533E-05-3.54727E-03 9.48537E-05
 -1       148 2.37864E-05-3.58343E-03-2.70983E-05
 -1       149 7.30204E-05-3.39435E-03-4.87361E-05
 -1       150 8.40307E-05-3.24795E-03-1.40020E-05
 -1       151-6.15813E-05-3.28651E-03-2.05607E-05
 -1       152-1.26828E-04-3.83908E-03 1.44709E-05
 -1       153-3.54245E-04-3.23702E-03 1.79523E-04
 -1       154-8.29338E-05-2.91055E-03-3.12466E-05
 -1       155 3.03754E-04-3.63075E-03-2.39591E-04
 -1       161 1.75418E-09-1.83908E-04 1.76962E-04
 -1       162-1.93571E-05-4.84984E-04 3.62744E-04
 -1       163 7.69108E-09-4.87095E-04 3.64801E-04
 -1       164 1.93724E-05-4.84984E-04 3.62750E-04
 -1       165 1.57670E-08-9.59052E-04 4.66039E-04
 -1       166-4.48303E-06-1.50174E-03 5.25688E-04
 -1       167 2.51404E-08-1.51454E-03 5.27516E-04
 -1       168 4.53365E-06-1.50174E-03 5.25696E-04
 -1       169 3.52263E-08-2.06574E-03 5.19104E-04
 -1       170 9.96091E-06-2.68242E-03 4.94935E-04
 -1       171 4.35206E-08-2.64442E-03 4.92411E-04
 -1       172-9.87276E-06-2.68242E-03 4.94942E-04
 -1       173 5.16063E-08-3.14045E-03 3.61374E-04
 -1       174 4.30590E-05-3.43874E-03 1.61387E-04
 -1       175 5.41577E-08-3.55684E-03 1.54230E-04
 -1       176-4.29483E-05-3.43874E-03 1.61389E-04
 -1       177 5.77345E-08-3.39360E-03-1.94814E-05
 -1       178-3.90096E-05-3.88322E-03 7.21403E-05
 -1       179 4.97478E-08-3.46055E-03 8.91352E-05
 -1       180 3.91167E-05-3.88323E-03 7.21310E-05
 -1       181 4.31513E-08-3.72205E-03-2.86500E-05
 -1       182 3.00852E-05-2.66384E-03-4.96712E-04
 -1       183 1.15129E-08-4.74578E-03-5.02599E-04
 -1       184-3.00525E-05-2.66385E-03-4.96724E-04
 -1       190-1.13755E-06-9.94109E-05-1.85201E-06
 -1       191 1.91512E-05-4.43100E-04 1.64619E-04
 -1       192-1.22904E-06-4.48574E-04-3.74629E-06
 -1       193-2.04568E-05-4.43292E-04-1.73128E-04
 -1       194-1.81775E-07-9.22282E-04-6.88618E-06
 -1       195 3.29969E-06-1.49766E-03 2.49977E-04
 -1       196-9.97556E-07-1.49136E-03-9.49583E-06
 -1       197-4.87812E-06-1.49544E-03-2.66588E-04
 -1       198-1.98436E-06-2.09284E-03-1.12260E-05
 -1       199-9.70987E-06-2.65598E-03 2.17685E-04
 -1       200-5.77588E-06-2.64598E-03-7.51814E-06
 -1       201 7.40852E-06-2.65193E-03-2.43322E-04
 -1       202 8.74853E-06-3.20723E-03-1.67119E-05
 -1       203-5.18392E-05-3.54727E-03 9.48584E-05
 -1       204 9.64815E-06-3.46605E-03-3.10275E-05
 -1       205 5.64322E-05-3.51434E-03-1.32886E-04
 -1       206-2.36830E-05-3.58343E-03-2.71020E-05
 -1       207 6.16940E-05-3.28651E-03-2.05716E-05
 -1       208-8.39141E-05-3.24795E-03-1.40064E-05
 -1       209-7.29072E-05-3.39435E-03-4.87469E-05
 -1       210 1.26903E-04-3.83908E-03 1.44255E-05
 -1       211-3.03688E-04-3.63076E-03-2.39634E-04
 -1       212 8.30150E-05-2.91055E-03-3.13017E-05
 -1       213 3.54312E-04-3.23701E-03 1.79481E-04
 -1       219 2.40731E-09-1.36570E-04-1.65187E-06
 -1       220 8.05438E-09-4.69811E-04-1.80413E-04
 -1       221-5.94016E-07-4.70634E-04-4.54945E-06
 -1       222 8.01286E-09-4.71364E-04-4.68822E-06
 -1       223 6.10222E-07-4.70634E-04-4.55544E-06
 -1       224 8.01983E-09-4.67903E-04 1.71646E-04
 -1       225 1.61559E-08-9.38952E-04-6.52069E-06
 -1       226 2.51127E-08-1.50645E-03-2.73275E-04
 -1       227-5.22890E-07-1.48972E-03-8.64767E-06
 -1       228 2.49497E-08-1.49148E-03-1.01040E-05
 -1       229 5.73759E-07-1.48972E-03-8.65634E-06
 -1       230 2.50455E-08-1.50401E-03 2.53890E-04
 -1       231 3.54104E-08-2.09565E-03-9.74022E-06
 -1       232 4.30486E-08-2.65588E-03-2.50426E-04
 -1       233-2.66664E-06-2.64566E-03-1.57042E-05
 -1       234 4.25652E-08-2.63448E-03-1.69576E-05
 -1       235 2.75441E-06-2.64566E-03-1.57114E-05
 -1       236 4.29504E-08-2.63685E-03 2.21186E-04
 -1       237 5.15769E-08-3.16611E-03-1.29769E-05
 -1       238 5.29630E-08-3.57435E-03-1.29838E-04
 -1       239 6.03871E-06-3.41210E-03-1.84593E-05
 -1       240 5.19228E-08-3.45125E-03-2.33815E-05
 -1       241-5.92954E-06-3.41210E-03-1.84626E-05
 -1       242 5.28611E-08-3.53756E-03 8.41665E-05
 -1       243 5.85583E-08-3.58308E-03-2.67262E-05
 -1       244 4.75014E-08-3.46149E-03-2.25535E-05
 -1       245-4.25300E-05-3.53062E-03-3.72093E-05
 -1       246 4.55536E-08-3.47789E-03-2.78509E-05
 -1       247 4.26371E-05-3.53062E-03-3.71993E-05
 -1       248 4.73645E-08-3.38159E-03-1.17923E-05
 -1       249 4.33164E-08-3.57064E-03-2.14236E-05
 -1       250 7.90446E-09-4.09444E-03 1.60354E-04
 -1       251 5.42423E-05-2.50963E-03-2.25765E-05
 -1       252 5.50582E-09-3.45608E-03-2.04162E-05
 -1       253-5.42020E-05-2.50963E-03-2.25823E-05
 -1       254 8.13348E-09-4.42587E-03-2.47390E-04
 -3
    1PSTEP                         2           2           1          
  100CL  102 1.00000E-02         201                     1    2           1
 -4  DISP        4    1
 -5  D1          1    2    1    0
 -5  D2          1    2    2    0
 -5  D3          1    2    3    0
 -5  ALL         1    2    0    0    1ALL
 -1         1 0.00000E+00 0.00000E+00 0.00000E+00
 -1         2 0.00000E+00 0.00000E+00 0.00000E+00
 -1         3 0.00000E+00 0.00000E+00 0.00000E+00
 -1         4 0.00000E+00 0.00000E+00 0.00000E+00
 -1         9 0.00000E+00 0.00000E+00 0.00000E+00
 -1        10 0.00000E+00 0.00000E+00 0.00000E+00
 -1        11 0.00000E+00 0.00000E+00 0.00000E+00
 -1        12 0.00000E+00 0.00000E+00 0.00000E+00
 -1        13 0.00000E+00 0.00000E+00 0.00000E+00
 -1        14 0.00000E+00 0.00000E+00 0.00000E+00
 -1        15 0.00000E+00 0.00000E+00 0.00000E+00
 -1        16 0.00000E+00 0.00000E+00 0.00000E+00
 -1        17 0.00000E+00 0.00000E+00 0.00000E+00
 -1        18 0.00000E+00 0.00000E+00 0.00000E+00
 -1        19 0.00000E+00 0.00000E+00 0.00000E+00
 -1        20 0.00000E+00 0.00000E+00 0.00000E+00
 -1        33-4.66446E-05 7.63689E-05 9.39895E-05
 -1        34-1.92030E-05 2.35409E-04 1.83015E-04
 -1        35-1.77620E-05 4.85593E-04 2.39867E-04
 -1        36-6.16240E-06 7.65511E-04 2.71317E-04
 -1        37 5.81083E-06 1.06900E-03 2.71267E-04
 -1        38 2.13955E-05 1.36249E-03 2.45810E-04
 -1        39 2.47924E-05 1.60824E-03 1.80689E-04
 -1        40 1.29811E-05 1.77373E-03 9.90663E-05
 -1        41 5.77217E-05 1.82725E-03 2.63452E-05
 -1        42 1.10091E-04 1.84941E-03-2.28955E-05
 -1        43-1.20310E-04 1.64667E-03-1.43752E-04
 -1        44-4.20292E-04 1.36419E-03-2.52940E-04
 -1        51 4.20262E-04 1.36422E-03-2.52933E-04
 -1        52 1.20291E-04 1.64669E-03-1.43747E-04
 -1        53-1.10112E-04 1.84943E-03-2.28936E-05
 -1        54-5.77367E-05 1.82727E-03 2.63448E-05
 -1        55-1.29973E-05 1.77374E-03 9.90656E-05
 -1        56-2.48054E-05 1.60825E-03 1.80690E-04
 -1        57-2.14073E-05 1.36250E-03 2.45810E-04
 -1        58-5.82006E-06 1.06901E-03 2.71267E-04
 -1        59 6.15482E-06 7.65517E-04 2.71317E-04
 -1        60 1.77566E-05 4.85598E-04 2.39867E-04
 -1        61 1.91996E-05 2.35412E-04 1.83015E-04
 -1        62 4.66431E-05 7.63703E-05 9.39894E-05
 -1        63 4.66341E-05 7.63537E-05-9.39675E-05
 -1        64 1.92011E-05 2.35403E-04-1.82968E-04
 -1        65 1.77403E-05 4.85590E-04-2.39797E-04
 -1        66 6.15200E-06 7.65551E-04-2.71230E-04
 -1        67-5.79953E-06 1.06893E-03-2.71150E-04
 -1        68-2.13355E-05 1.36245E-03-2.45655E-04
 -1        69-2.49496E-05 1.60836E-03-1.80510E-04
 -1        70-1.32042E-05 1.77435E-03-9.89004E-05
 -1        71-5.71733E-05 1.82625E-03-2.61194E-05
 -1        72-1.08618E-04 1.84732E-03 2.33024E-05
 -1        73 1.17608E-04 1.65031E-03 1.44264E-04
 -1        74 4.16640E-04 1.37197E-03 2.53227E-04
 -1        78-4.66328E-05 7.63552E-05-9.39677E-05