    1C
    1UUSER                                                              
    1UDATE              18.july.2018                                    
    1UTIME              00:47:42                                        
    1UHOST                                                              
    1UPGM               CalculiX                                        
    1UVERSION           Version 2.13                             
    1UCOMPILETIME       jue jun 14 00:40:39 CEST 2018                    
    1UDIR                                                               
    1UDBN                                                               
    1UMAT    1EL                                                        
    2C                           201                                     1
 -1         1 0.00000E+00 0.00000E+00 0.00000E+00
 -1         2 1.00000E+00 0.00000E+00 0.00000E+00
 -1         3 1.00000E+00 1.00000E+00 0.00000E+00
 -1         4 0.00000E+00 1.00000E+00 0.00000E+00
 -1         9 2.50000E-01 0.00000E+00 0.00000E+00
 -1        10 5.00000E-01 0.00000E+00 0.00000E+00
 -1        11 7.50000E-01 0.00000E+00 0.00000E+00
 -1        12 1.00000E+00 2.50000E-01 0.00000E+00
 -1        13 1.00000E+00 5.00000E-01 0.00000E+00
 -1        14 1.00000E+00 7.50000E-01 0.00000E+00
 -1        15 7.50000E-01 1.00000E+00 0.00000E+00
 -1        16 5.00000E-01 1.00000E+00 0.00000E+00
 -1        17 2.50000E-01 1.00000E+00 0.00000E+00
 -1        18 0.00000E+00 7.50000E-01 0.00000E+00
 -1        19 0.00000E+00 5.00000E-01 0.00000E+00
 -1        20 0.00000E+00 2.50000E-01 0.00000E+00
 -1        33 1.00000E+00 0.00000E+00 5.00000E-01
 -1        34 1.00000E+00 0.00000E+00 1.00000E+00
 -1        35 1.00000E+00 0.00000E+00 1.50000E+00
 -1        36 1.00000E+00 0.00000E+00 2.00000E+00
 -1        37 1.00000E+00 0.00000E+00 2.50000E+00
 -1        38 1.00000E+00 0.00000E+00 3.00000E+00
 -1        39 1.00000E+00 0.00000E+00 3.50000E+00
 -1        40 1.00000E+00 0.00000E+00 4.00000E+00
 -1        41 1.00000E+00 0.00000E+00 4.50000E+00
 -1        42 1.00000E+00 0.00000E+00 5.00000E+00
 -1        43 1.00000E+00 0.00000E+00 5.50000E+00
 -1        44 1.00000E+00 0.00000E+00 6.00000E+00
 -1        51 0.00000E+00 0.00000E+00 6.00000E+00
 -1        52 0.00000E+00 0.00000E+00 5.50000E+00
 -1        53 0.00000E+00 0.00000E+00 5.00000E+00
 -1        54 0.00000E+00 0.00000E+00 4.50000E+00
 -1        55 0.00000E+00 0.00000E+00 4.00000E+00
 -1        56 0.00000E+00 0.00000E+00 3.50000E+00
 -1        57 0.00000E+00 0.00000E+00 3.00000E+00
 -1        58 0.00000E+00 0.00000E+00 2.50000E+00
 -1        59 0.00000E+00 0.00000E+00 2.00000E+00
 -1        60 0.00000E+00 0.00000E+00 1.50000E+00
 -1        61 0.00000E+00 0.00000E+00 1.00000E+00
 -1        62 0.00000E+00 0.00000E+00 5.00000E-01
 -1        63 1.00000E+00 1.00000E+00 5.00000E-01
 -1        64 1.00000E+00 1.00000E+00 1.00000E+00
 -1        65 1.00000E+00 1.00000E+00 1.50000E+00
 -1        66 1.00000E+00 1.00000E+00 2.00000E+00
 -1        67 1.00000E+00 1.00000E+00 2.50000E+00
 -1        68 1.00000E+00 1.00000E+00 3.00000E+00
 -1        69 1.00000E+00 1.00000E+00 3.50000E+00
 -1        70 1.00000E+00 1.00000E+00 4.00000E+00
 -1        71 1.00000E+00 1.00000E+00 4.50000E+00
 -1        72 1.00000E+00 1.00000E+00 5.00000E+00
 -1        73 1.00000E+00 1.00000E+00 5.50000E+00
 -1        74 1.00000E+00 1.00000E+00 6.00000E+00
 -1        78 0.00000E+00 1.00000E+00 5.00000E-01
 -1        79 0.00000E+00 1.00000E+00 1.00000E+00
 -1        80 0.00000E+00 1.00000E+00 1.50000E+00
 -1        81 0.00000E+00 1.00000E+00 2.00000E+00
 -1        82 0.00000E+00 1.00000E+00 2.50000E+00
 -1        83 0.00000E+00 1.00000E+00 3.00000E+00
 -1        84 0.00000E+00 1.00000E+00 3.50000E+00
 -1        85 0.00000E+00 1.00000E+00 4.00000E+00
 -1        86 0.00000E+00 1.00000E+00 4.50000E+00
 -1        87 0.00000E+00 1.00000E+00 5.00000E+00
 -1        88 0.00000E+00 1.00000E+00 5.50000E+00
 -1        89 0.00000E+00 1.00000E+00 6.00000E+00
 -1        93 5.00000E-01 2.50000E-01 0.00000E+00
 -1        94 2.50000E-01 5.00000E-01 0.00000E+00
 -1        95 5.00000E-01 5.00000E-01 0.00000E+00
 -1        96 7.50000E-01 5.00000E-01 0.00000E+00
 -1        97 5.00000E-01 7.50000E-01 0.00000E+00
 -1       103 5.00000E-01 0.00000E+00 5.00000E-01
 -1       104 2.50000E-01 0.00000E+00 1.00000E+00
 -1       105 5.00000E-01 0.00000E+00 1.00000E+00
 -1       106 7.50000E-01 0.00000E+00 1.00000E+00
 -1       107 5.00000E-01 0.00000E+00 1.50000E+00
 -1       108 2.50000E-01 0.00000E+00 2.00000E+00
 -1       109 5.00000E-01 0.00000E+00 2.00000E+00
 -1       110 7.50000E-01 0.00000E+00 2.00000E+00
 -1       111 5.00000E-01 0.00000E+00 2.50000E+00
 -1       112 2.50000E-01 0.00000E+00 3.00000E+00
 -1       113 5.00000E-01 0.00000E+00 3.00000E+00
 -1       114 7.50000E-01 0.00000E+00 3.00000E+00
 -1       115 5.00000E-01 0.00000E+00 3.50000E+00
 -1       116 2.50000E-01 0.00000E+00 4.00000E+00
 -1       117 5.00000E-01 0.00000E+00 4.00000E+00
 -1       118 7.50000E-01 0.00000E+00 4.00000E+00
 -1       119 5.00000E-01 0.00000E+00 4.50000E+00
 -1       120 2.50000E-01 0.00000E+00 5.00000E+00
 -1       121 5.00000E-01 0.00000E+00 5.00000E+00
 -1       122 7.50000E-01 0.00000E+00 5.00000E+00
 -1       123 5.00000E-01 0.00000E+00 5.50000E+00
 -1       124 2.50000E-01 0.00000E+00 6.00000E+00
 -1       125 5.00000E-01 0.00000E+00 6.00000E+00
 -1       126 7.50000E-01 0.00000E+00 6.00000E+00
 -1       132 1.00000E+00 5.00000E-01 5.00000E-01
 -1       133 1.00000E+00 2.50000E-01 1.00000E+00
 -1       134 1.00000E+00 5.00000E-01 1.00000E+00
 -1       135 1.00000E+00 7.50000E-01 1.00000E+00
 -1       136 1.00000E+00 5.00000E-01 1.50000E+00
 -1       137 1.00000E+00 2.50000E-01 2.00000E+00
 -1       138 1.00000E+00 5.00000E-01 2.00000E+00
 -1       139 1.00000E+00 7.50000E-01 2.00000E+00
 -1       140 1.00000E+00 5.00000E-01 2.50000E+00
 -1       141 1.00000E+00 2.50000E-01 3.00000E+00
 -1       142 1.00000E+00 5.00000E-01 3.00000E+00
 -1       143 1.00000E+00 7.50000E-01 3.00000E+00
 -1       144 1.00000E+00 5.00000E-01 3.50000E+00
 -1       145 1.00000E+00 2.50000E-01 4.00000E+00
 -1       146 1.00000E+00 5.00000E-01 4.00000E+00
 -1       147 1.00000E+00 7.50000E-01 4.00000E+00
 -1       148 1.00000E+00 5.00000E-01 4.50000E+00
 -1       149 1.00000E+00 2.50000E-01 5.00000E+00
 -1       150 1.00000E+00 5.00000E-01 5.00000E+00
 -1       151 1.00000E+00 7.50000E-01 5.00000E+00
 -1       152 1.00000E+00 5.00000E-01 5.50000E+00
 -1       153 1.00000E+00 2.50000E-01 6.00000E+00
 -1       154 1.00000E+00 5.00000E-01 6.00000E+00
 -1       155 1.00000E+00 7.50000E-01 6.00000E+00
 -1       161 5.00000E-01 1.00000E+00 5.00000E-01
 -1       162 7.50000E-01 1.00000E+00 1.00000E+00
 -1       163 5.00000E-01 1.00000E+00 1.00000E+00
 -1       164 2.50000E-01 1.00000E+00 1.00000E+00
 -1       165 5.00000E-01 1.00000E+00 1.50000E+00
 -1       166 7.50000E-01 1.00000E+00 2.00000E+00
 -1       167 5.00000E-01 1.00000E+00 2.00000E+00
 -1       168 2.50000E-01 1.00000E+00 2.00000E+00
 -1       169 5.00000E-01 1.00000E+00 2.50000E+00
 -1       170 7.50000E-01 1.00000E+00 3.00000E+00
 -1       171 5.00000E-01 1.00000E+00 3.00000E+00
 -1       172 2.50000E-01 1.00000E+00 3.00000E+00
 -1       173 5.00000E-01 1.00000E+00 3.50000E+00
 -1       174 7.50000E-01 1.00000E+00 4.00000E+00
 -1       175 5.00000E-01 1.00000E+00 4.00000E+00
 -1       176 2.50000E-01 1.00000E+00 4.00000E+00
 -1       177 5.00000E-01 1.00000E+00 4.50000E+00
 -1       178 7.50000E-01 1.00000E+00 5.00000E+00
 -1       179 5.00000E-01 1.00000E+00 5.00000E+00
 -1       180 2.50000E-01 1.00000E+00 5.00000E+00
 -1       181 5.00000E-01 1.00000E+00 5.50000E+00
 -1       182 7.50000E-01 1.00000E+00 6.00000E+00
 -1       183 5.00000E-01 1.00000E+00 6.00000E+00
 -1       184 2.50000E-01 1.00000E+00 6.00000E+00
 -1       190 0.00000E+00 5.00000E-01 5.00000E-01
 -1       191 0.00000E+00 7.50000E-01 1.00000E+00
 -1       192 0.00000E+00 5.00000E-01 1.00000E+00
 -1       193 0.00000E+00 2.50000E-01 1.00000E+00
 -1       194 0.00000E+00 5.00000E-01 1.50000E+00
 -1       195 0.00000E+00 7.50000E-01 2.00000E+00
 -1       196 0.00000E+00 5.00000E-01 2.00000E+00
 -1       197 0.00000E+00 2.50000E-01 2.00000E+00
 -1       198 0.00000E+00 5.00000E-01 2.50000E+00
 -1       199 0.00000E+00 7.50000E-01 3.00000E+00
 -1       200 0.00000E+00 5.00000E-01 3.00000E+00
 -1       201 0.00000E+00 2.50000E-01 3.00000E+00
 -1       202 0.00000E+00 5.00000E-01 3.50000E+00
 -1       203 0.00000E+00 7.50000E-01 4.00000E+00
 -1       204 0.00000E+00 5.00000E-01 4.00000E+00
 -1       205 0.00000E+00 2.50000E-01 4.00000E+00
 -1       206 0.00000E+00 5.00000E-01 4.50000E+00
 -1       207 0.00000E+00 7.50000E-01 5.00000E+00
 -1       208 0.00000E+00 5.00000E-01 5.00000E+00
 -1       209 0.00000E+00 2.50000E-01 5.00000E+00
 -1       210 0.00000E+00 5.00000E-01 5.50000E+00
 -1       211 0.00000E+00 7.50000E-01 6.00000E+00
 -1       212 0.00000E+00 5.00000E-01 6.00000E+00
 -1       213 0.00000E+00 2.50000E-01 6.00000E+00
 -1       219 5.00000E-01 5.00000E-01 5.00000E-01
 -1       220 5.00000E-01 2.50000E-01 1.00000E+00
 -1       221 2.50000E-01 5.00000E-01 1.00000E+00
 -1       222 5.00000E-01 5.00000E-01 1.00000E+00
 -1       223 7.50000E-01 5.00000E-01 1.00000E+00
 -1       224 5.00000E-01 7.50000E-01 1.00000E+00
 -1       225 5.00000E-01 5.00000E-01 1.50000E+00
 -1       226 5.00000E-01 2.50000E-01 2.00000E+00
 -1       227 2.50000E-01 5.00000E-01 2.00000E+00
 -1       228 5.00000E-01 5.00000E-01 2.00000E+00
 -1       229 7.50000E-01 5.00000E-01 2.00000E+00
 -1       230 5.00000E-01 7.50000E-01 2.00000E+00
 -1       231 5.00000E-01 5.00000E-01 2.50000E+00
 -1       232 5.00000E-01 2.50000E-01 3.00000E+00
 -1       233 2.50000E-01 5.00000E-01 3.00000E+00
 -1       234 5.00000E-01 5.00000E-01 3.00000E+00
 -1       235 7.50000E-01 5.00000E-01 3.00000E+00
 -1       236 5.00000E-01 7.50000E-01 3.00000E+00
 -1       237 5.00000E-01 5.00000E-01 3.50000E+00
 -1       238 5.00000E-01 2.50000E-01 4.00000E+00
 -1       239 2.50000E-01 5.00000E-01 4.00000E+00
 -1       240 5.00000E-01 5.00000E-01 4.00000E+00
 -1       241 7.50000E-01 5.00000E-01 4.00000E+00
 -1       242 5.00000E-01 7.50000E-01 4.00000E+00
 -1       243 5.00000E-01 5.00000E-01 4.50000E+00
 -1       244 5.00000E-01 2.50000E-01 5.00000E+00
 -1       245 2.50000E-01 5.00000E-01 5.00000E+00
 -1       246 5.00000E-01 5.00000E-01 5.00000E+00
 -1       247 7.50000E-01 5.00000E-01 5.00000E+00
 -1       248 5.00000E-01 7.50000E-01 5.00000E+00
 -1       249 5.00000E-01 5.00000E-01 5.50000E+00
 -1       250 5.00000E-01 2.50000E-01 6.00000E+00
 -1       251 2.50000E-01 5.00000E-01 6.00000E+00
 -1       252 5.00000E-01 5.00000E-01 6.00000E+00
 -1       253 7.50000E-01 5.00000E-01 6.00000E+00
 -1       254 5.00000E-01 7.50000E-01 6.00000E+00
 -3
    3C                            24                                     1
 -1         1    4    0    1
 -2         1        10        95        19        61       105       222       192         9        93
 -2        94        20        62       103       219       190       104       220       221       193
 -1         2    4    0    1
 -2        10         2        13        95       105        34       134       222        11        12
 -2        96        93       103        33       132       219       106       133       223       220
 -1         3    4    0    1
 -2        19        95        16         4       192       222       163        79        94        97
 -2        17        18       190       219       161        78       221       224       164       191
 -1         4    4    0    1
 -2        95        13         3        16       222       134        64       163        96        14
 -2        15        97       219       132        63       161       223       135       162       224
 -1         5    4    0    1
 -2        61       105       222       192        59       109       228       196       104       220
 -2       221       193        60       107       225       194       108       226       227       197
 -1         6    4    0    1
 -2       105        34       134       222       109        36       138       228       106       133
 -2       223       220       107        35       136       225       110       137       229       226
 -1         7    4    0    1
 -2       192       222       163        79       196       228       167        81       221       224
 -2       164       191       194       225       165        80       227       230       168       195
 -1         8    4    0    1
 -2       222       134        64       163       228       138        66       167       223       135
 -2       162       224       225       136        65       165       229       139       166       230
 -1         9    4    0    1
 -2        59       109       228       196        57       113       234       200       108       226
 -2       227       197        58       111       231       198       112       232       233       201
 -1        10    4    0    1
 -2       109        36       138       228       113        38       142       234       110       137
 -2       229       226       111        37       140       231       114       141       235       232
 -1        11    4    0    1
 -2       196       228       167        81       200       234       171        83       227       230
 -2       168       195       198       231       169        82       233       236       172       199
 -1        12    4    0    1
 -2       228       138        66       167       234       142        68       171       229       139
 -2       166       230       231       140        67       169       235       143       170       236
 -1        13    4    0    1
 -2        57       113       234       200        55       117       240       204       112       232
 -2       233       201        56       115       237       202       116       238       239       205
 -1        14    4    0    1
 -2       113        38       142       234       117        40       146       240       114       141
 -2       235       232       115        39       144       237       118       145       241       238
 -1        15    4    0    1
 -2       200       234       171        83       204       240       175        85       233       236
 -2       172       199       202       237       173        84       239       242       176       203
 -1        16    4    0    1
 -2       234       142        68       171       240       146        70       175       235       143
 -2       170       236       237       144        69       173       241       147       174       242
 -1        17    4    0    1
 -2        55       117       240       204        53       121       246       208       116       238
 -2       239       205        54       119       243       206       120       244       245       209
 -1        18    4    0    1
 -2       117        40       146       240       121        42       150       246       118       145
 -2       241       238       119        41       148       243       122       149       247       244
 -1        19    4    0    1
 -2       204       240       175        85       208       246       179        87       239       242
 -2       176       203       206       243       177        86       245       248       180       207
 -1        20    4    0    1
 -2       240       146        70       175       246       150        72       179       241       147
 -2       174       242       243       148        71       177       247       151       178       248
 -1        21    4    0    1
 -2        53       121       246       208        51       125       252       212       120       244
 -2       245       209        52       123       249       210       124       250       251       213
 -1        22    4    0    1
 -2       121        42       150       246       125        44       154       252       122       149
 -2       247       244       123        43       152       249       126       153       253       250
 -1        23    4    0    1
 -2       208       246       179        87       212       252       183        89       245       248
 -2       180       207       210       249       181        88       251       254       184       211
 -1        24    4    0    1
 -2       246       150        72       179       252       154        74       183       247       151
 -2       178       248       249       152        73       181       253       155       182       254
 -3
    1PSTEP                         1           1           1          
  100CL  101 5.00000E-03         201                     1    1           1
 -4  DISP        4    1
 -5  D1          1    2    1    0
 -5  D2          1    2    2    0
 -5  D3          1    2    3    0
 -5  ALL         1    2    0    0    1ALL
 -1         1 0.00000E+00 0.00000E+00 0.00000E+00
 -1         2 0.00000E+00 0.00000E+00 0.00000E+00
 -1         3 0.00000E+00 0.00000E+00 0.00000E+00
 -1         4 0.00000E+00 0.00000E+00 0.00000E+00
 -1         9 0.00000E+00 0.00000E+00 0.00000E+00
 -1        10 0.00000E+00 0.00000E+00 0.00000E+00
 -1        11 0.00000E+00 0.00000E+00 0.00000E+00
 -1        12 0.00000E+00 0.00000E+00 0.00000E+00
 -1        13 0.00000E+00 0.00000E+00 0.00000E+00
 -1        14 0.00000E+00 0.00000E+00 0.00000E+00
 -1        15 0.00000E+00 0.00000E+00 0.00000E+00
 -1        16 0.00000E+00 0.00000E+00 0.00000E+00
 -1        17 0.00000E+00 0.00000E+00 0.00000E+00
 -1        18 0.00000E+00 0.00000E+00 0.00000E+00
 -1        19 0.00000E+00 0.00000E+00 0.00000E+00
 -1        20 0.00000E+00 0.00000E+00 0.00000E+00
 -1        33 9.22072E-05-1.48635E-04-1.84759E-04
 -1        34 3.86830E-05-4.59844E-04-3.62637E-04
 -1        35 3.57425E-05-9.46614E-04-4.74571E-04
 -1        36 1.28902E-05-1.49823E-03-5.40408E-04
 -1        37-9.54156E-06-2.08446E-03-5.42750E-04
 -1        38-3.73746E-05-2.66540E-03-5.08628E-04
 -1        39-4.62719E-05-3.15392E-03-3.73978E-04
 -1        40-2.76344E-05-3.48892E-03-2.26420E-04
 -1        41-1.15933E-04-3.57487E-03-7.61470E-05
 -1        42-2.40114E-04-3.73067E-03-1.03199E-04
 -1        43 3.22793E-04-3.23428E-03 2.02224E-04
 -1        44 6.82594E-04-2.79582E-03 4.78626E-04
 -1        51-6.82901E-04-2.79590E-03 4.78869E-04
 -1        52-3.23264E-04-3.23423E-03 2.02417E-04
 -1        53 2.39475E-04-3.73067E-03-1.03128E-04
 -1        54 1.15304E-04-3.57485E-03-7.61262E-05
 -1        55 2.69891E-05-3.48891E-03-2.26446E-04
 -1        56 4.56970E-05-3.15390E-03-3.74032E-04
 -1        57 3.68714E-05-2.66539E-03-5.08711E-04
 -1        58 9.14692E-06-2.08445E-03-5.42845E-04
 -1        59-1.31787E-05-1.49823E-03-5.40507E-04
 -1        60-3.59243E-05-9.46619E-04-4.74659E-04
 -1        61-3.87727E-05-4.59851E-04-3.62705E-04
 -1        62-9.22361E-05-1.48653E-04-1.84794E-04
 -1        63-9.01732E-05-1.45865E-04 1.80635E-04
 -1        64-3.83860E-05-4.58799E-04 3.53868E-04
 -1        65-3.23220E-05-9.45544E-04 4.61423E-04
 -1        66-1.18517E-05-1.50537E-03 5.23930E-04
 -1        67 8.59936E-06-2.07208E-03 5.20640E-04
 -1        68 2.80888E-05-2.66314E-03 4.79435E-04
 -1        69 6.66413E-05-3.16793E-03 3.39708E-04
 -1        70 5.69126E-05-3.59220E-03 1.93932E-04
 -1        71 4.64301E-05-3.42443E-03 3.27930E-05
 -1        72 2.22615E-05-3.40280E-03 2.61477E-05
 -1        73 3.30498E-05-3.75895E-03-3.00434E-04
 -1        74-2.58127E-04-3.95427E-03-5.36754E-04
 -1        78 9.01443E-05-1.45847E-04 1.80600E-04
 -1        79 3.82961E-05-4.58792E-04 3.53800E-04
 -1        80 3.21400E-05-9.45538E-04 4.61335E-04
 -1        81 1.15630E-05-1.50537E-03 5.23830E-04
 -1        82-8.99435E-06-2.07208E-03 5.20545E-04
 -1        83-2.85926E-05-2.66315E-03 4.79352E-04
 -1        84-6.72166E-05-3.16795E-03 3.39653E-04
 -1        85-5.75585E-05-3.59221E-03 1.93906E-04
 -1        86-4.70601E-05-3.42445E-03 3.28138E-05
 -1        87-2.29015E-05-3.40280E-03 2.62186E-05
 -1        88-3.35214E-05-3.75900E-03-3.00241E-04
 -1        89 2.57819E-04-3.95418E-03-5.36511E-04
 -1        93 0.00000E+00 0.00000E+00 0.00000E+00
 -1        94 0.00000E+00 0.00000E+00 0.00000E+00
 -1        95 0.00000E+00 0.00000E+00 0.00000E+00
 -1        96 0.00000E+00 0.00000E+00 0.00000E+00
 -1        97 0.00000E+00 0.00000E+00 0.00000E+00
 -1       103-9.93301E-09-1.86098E-04-1.81389E-04
 -1       104-1.97691E-05-4.86404E-04-3.71290E-04
 -1       105-4.35689E-08-4.90792E-04-3.74178E-04
 -1       106 1.96826E-05-4.86400E-04-3.71257E-04
 -1       107-8.91378E-08-9.59801E-04-4.78548E-04
 -1       108-4.62020E-06-1.50630E-03-5.44106E-04
 -1       109-1.42574E-07-1.52079E-03-5.43140E-04
 -1       110 4.33355E-06-1.50630E-03-5.44059E-04
 -1       111-1.99652E-07-2.06613E-03-5.44501E-04
 -1       112 1.10244E-05-2.68417E-03-5.21118E-04
 -1       113-2.47986E-07-2.68172E-03-5.28290E-04
 -1       114-1.15255E-05-2.68418E-03-5.21078E-04
 -1       115-2.94208E-07-3.11897E-03-3.87680E-04
 -1       116 4.05705E-05-3.50193E-03-2.05227E-04
 -1       117-3.12185E-07-3.63215E-03-1.73282E-04
 -1       118-4.12056E-05-3.50194E-03-2.05214E-04
 -1       119-3.32151E-07-3.44701E-03-4.31767E-05
 -1       120 3.43571E-05-3.76806E-03-1.12501E-04
 -1       121-2.92809E-07-3.66012E-03-1.61399E-04
 -1       122-3.49785E-05-3.76806E-03-1.12549E-04
 -1       123-2.57221E-07-3.51593E-03-8.30885E-05
 -1       124-6.42976E-05-3.14598E-03 4.45834E-04
 -1       125-9.67699E-08-3.87624E-03 4.73448E-04
 -1       126 6.40598E-05-3.14595E-03 4.45766E-04
 -1       132 1.12541E-06-9.94503E-05-1.84305E-06
 -1       133 2.04301E-05-4.43486E-04-1.73184E-04
 -1       134 1.19315E-06-4.48782E-04-3.72752E-06
 -1       135-1.92010E-05-4.43299E-04 1.64718E-04
 -1       136 1.06425E-07-9.22695E-04-6.85928E-06
 -1       137 4.75173E-06-1.49614E-03-2.66695E-04
 -1       138 8.72157E-07-1.49209E-03-9.46518E-06
 -1       139-3.40098E-06-1.49834E-03 2.50124E-04
 -1       140 1.82932E-06-2.09379E-03-1.12173E-05
 -1       141-7.58226E-06-2.65316E-03-2.43421E-04
 -1       142 5.59881E-06-2.64730E-03-7.52843E-06
 -1       143 9.43684E-06-2.65730E-03 2.17824E-04
 -1       144-8.99595E-06-3.20884E-03-1.67063E-05
 -1       145-5.68942E-05-3.51641E-03-1.33035E-04
 -1       146-1.00330E-05-3.46821E-03-3.09908E-05
 -1       147 5.19195E-05-3.54899E-03 9.49093E-05
 -1       148 2.34932E-05-3.58507E-03-2.71419E-05
 -1       149 7.33346E-05-3.39571E-03-4.85900E-05
 -1       150 8.40569E-05-3.25008E-03-1.41574E-05
 -1       151-6.33385E-05-3.28945E-03-2.07372E-05
 -1       152-1.27277E-04-3.84194E-03 1.39542E-05
 -1       153-3.57251E-04-3.24352E-03 1.79578E-04
 -1       154-8.51651E-05-2.91693E-03-3.14259E-05
 -1       155 3.09031E-04-3.63095E-03-2.40033E-04
 -1       161-9.96949E-09-1.83989E-04 1.77043E-04
 -1       162-1.94144E-05-4.85190E-04 3.62919E-04
 -1       163-4.36387E-08-4.87298E-04 3.64960E-04
 -1       164 1.93277E-05-4.85186E-04 3.62887E-04
 -1       165-8.92472E-08-9.59502E-04 4.66258E-04
 -1       166-4.65963E-06-1.50240E-03 5.25956E-04
 -1       167-1.42713E-07-1.51522E-03 5.27746E-04
 -1       168 4.37269E-06-1.50240E-03 5.25908E-04
 -1       169-1.99837E-07-2.06673E-03 5.19355E-04
 -1       170 9.71379E-06-2.68362E-03 4.95189E-04
 -1       171-2.48190E-07-2.64558E-03 4.92673E-04
 -1       172-1.02153E-05-2.68362E-03 4.95149E-04
 -1       173-2.94474E-07-3.14217E-03 3.61667E-04
 -1       174 4.25276E-05-3.44048E-03 1.61528E-04
 -1       175-3.12437E-07-3.55865E-03 1.54272E-04
 -1       176-4.31632E-05-3.44048E-03 1.61515E-04
 -1       177-3.32502E-07-3.39534E-03-1.95919E-05
 -1       178-3.85055E-05-3.88458E-03 7.20302E-05
 -1       179-2.93089E-07-3.46143E-03 8.94492E-05
 -1       180 3.78833E-05-3.88458E-03 7.20781E-05
 -1       181-2.57747E-07-3.72616E-03-2.76715E-05
 -1       182 2.58670E-05-2.66674E-03-4.97313E-04
 -1       183-9.69288E-08-4.74879E-03-5.02971E-04
 -1       184-2.61055E-05-2.66672E-03-4.97245E-04
 -1       190-1.16154E-06-9.94503E-05-1.87732E-06
 -1       191 1.91063E-05-4.43295E-04 1.64648E-04
 -1       192-1.28876E-06-4.48782E-04-3.79815E-06
 -1       193-2.05246E-05-4.43489E-04-1.73254E-04
 -1       194-2.90284E-07-9.22696E-04-6.94805E-06
 -1       195 3.11063E-06-1.49834E-03 2.50023E-04
 -1       196-1.16388E-06-1.49209E-03-9.56622E-06
 -1       197-5.04193E-06-1.49614E-03-2.66795E-04
 -1       198-2.22099E-06-2.09379E-03-1.13133E-05
 -1       199-9.93939E-06-2.65730E-03 2.17738E-04
 -1       200-6.10272E-06-2.64730E-03-7.61544E-06
 -1       201 7.07994E-06-2.65316E-03-2.43506E-04
 -1       202 8.42916E-06-3.20884E-03-1.67595E-05
 -1       203-5.25665E-05-3.54900E-03 9.48802E-05
 -1       204 9.38354E-06-3.46821E-03-3.10186E-05
 -1       205 5.62474E-05-3.51641E-03-1.33064E-04
 -1       206-2.41018E-05-3.58507E-03-2.71235E-05
 -1       207 6.26999E-05-3.28945E-03-2.06747E-05
 -1       208-8.47101E-05-3.25008E-03-1.41189E-05
 -1       209-7.39729E-05-3.39571E-03-4.85274E-05
 -1       210 1.26824E-04-3.84194E-03 1.41752E-05
 -1       211-3.09417E-04-3.63092E-03-2.39806E-04
 -1       212 8.47290E-05-2.91693E-03-3.11515E-05
 -1       213 3.56865E-04-3.24356E-03 1.79804E-04
 -1       219-1.34845E-08-1.36629E-04-1.65523E-06
 -1       220-4.54796E-08-4.70022E-04-1.80503E-04
 -1       221-6.48255E-07-4.70856E-04-4.57724E-06
 -1       222-4.54877E-08-4.71585E-04-4.69691E-06
 -1       223 5.56958E-07-4.70856E-04-4.54350E-06
 -1       224-4.55147E-08-4.68109E-04 1.71717E-04
 -1       225-9.09053E-08-9.39369E-04-6.53445E-06
 -1       226-1.42268E-07-1.50715E-03-2.73413E-04
 -1       227-6.95408E-07-1.49044E-03-8.69678E-06
 -1       228-1.41934E-07-1.49220E-03-1.01224E-05
 -1       229 4.07906E-07-1.49044E-03-8.64778E-06
 -1       230-1.42337E-07-1.50471E-03 2.53998E-04
 -1       231-1.99757E-07-2.09662E-03-9.76006E-06
 -1       232-2.45433E-07-2.65717E-03-2.50601E-04
 -1       233-2.94567E-06-2.64704E-03-1.57469E-05
 -1       234-2.43885E-07-2.63581E-03-1.69831E-05
 -1       235 2.44784E-06-2.64704E-03-1.57059E-05
 -1       236-2.45536E-07-2.63808E-03 2.21287E-04
 -1       237-2.92541E-07-3.16765E-03-1.30143E-05
 -1       238-3.06684E-07-3.57610E-03-1.29895E-04
 -1       239 5.59810E-06-3.41395E-03-1.85256E-05
 -1       240-3.03060E-07-3.45324E-03-2.34239E-05
 -1       241-6.22441E-06-3.41395E-03-1.85079E-05
 -1       242-3.06803E-07-3.53954E-03 8.42040E-05
 -1       243-3.32458E-07-3.58500E-03-2.67485E-05
 -1       244-2.83204E-07-3.46377E-03-2.28420E-05
 -1       245-4.25034E-05-3.53363E-03-3.71708E-05
 -1       246-2.77265E-07-3.47997E-03-2.78878E-05
 -1       247 4.18855E-05-3.53363E-03-3.72210E-05
 -1       248-2.83375E-07-3.38275E-03-1.17198E-05
 -1       249-2.53962E-07-3.57281E-03-2.15193E-05
 -1       250-8.98474E-08-4.09433E-03 1.60554E-04
 -1       251 5.24408E-05-2.51044E-03-2.26440E-05
 -1       252-8.49021E-08-3.45884E-03-2.05353E-05
 -1       253-5.27219E-05-2.51044E-03-2.26519E-05
 -1       254-8.98045E-08-4.43022E-03-2.47601E-04
 -3
    1PSTEP                         2           2           1          
  100CL  102 1.00000E-02         201                     1    2           1
 -4  DISP        4    1
 -5  D1          1    2    1    0
 -5  D2          1    2    2    0
 -5  D3          1    2    3    0
 -5  ALL         1    2    0    0    1ALL
 -1         1 0.00000E+00 0.00000E+00 0.00000E+00
 -1         2 0.00000E+00 0.00000E+00 0.00000E+00
 -1         3 0.00000E+00 0.00000E+00 0.00000E+00
 -1         4 0.00000E+00 0.00000E+00 0.00000E+00
 -1         9 0.00000E+00 0.00000E+00 0.00000E+00
 -1        10 0.00000E+00 0.00000E+00 0.00000E+00
 -1        11 0.00000E+00 0.00000E+00 0.00000E+00
 -1        12 0.00000E+00 0.00000E+00 0.00000E+00
 -1        13 0.00000E+00 0.00000E+00 0.00000E+00
 -1        14 0.00000E+00 0.00000E+00 0.00000E+00
 -1        15 0.00000E+00 0.00000E+00 0.00000E+00
 -1        16 0.00000E+00 0.00000E+00 0.00000E+00
 -1        17 0.00000E+00 0.00000E+00 0.00000E+00
 -1        18 0.00000E+00 0.00000E+00 0.00000E+00
 -1        19 0.00000E+00 0.00000E+00 0.00000E+00
 -1        20 0.00000E+00 0.00000E+00 0.00000E+00
 -1        33-4.66459E-05 7.63687E-05 9.39908E-05
 -1        34-1.92041E-05 2.35412E-04 1.83018E-04
 -1        35-1.77581E-05 4.85609E-04 2.39872E-04
 -1        36-6.15702E-06 7.65540E-04 2.71323E-04
 -1        37 5.79681E-06 1.06901E-03 2.71272E-04
 -1        38 2.13682E-05 1.36249E-03 2.45819E-04
 -1        39 2.48539E-05 1.60837E-03 1.80703E-04
 -1        40 1.30873E-05 1.77397E-03 9.90700E-05
 -1        41 5.74763E-05 1.82698E-03 2.63356E-05
 -1        42 1.09551E-04 1.84879E-03-2.28561E-05
 -1        43-1.19271E-04 1.64810E-03-1.43684E-04
 -1        44-4.18360E-04 1.36729E-03-2.52950E-04
 -1        51 4.18318E-04 1.36737E-03-2.52941E-04
 -1        52 1.19234E-04 1.64812E-03-1.43669E-04
 -1        53-1.09565E-04 1.84880E-03-2.28517E-05
 -1        54-5.74938E-05 1.82698E-03 2.63301E-05
 -1        55-1.31026E-05 1.77398E-03 9.90667E-05
 -1        56-2.48687E-05 1.60837E-03 1.80702E-04
 -1        57-2.13777E-05 1.36249E-03 2.45818E-04
 -1        58-5.80534E-06 1.06901E-03 2.71270E-04
 -1        59 6.15146E-06 7.65542E-04 2.71322E-04
 -1        60 1.77540E-05 4.85611E-04 2.39871E-04
 -1        61 1.92021E-05 2.35413E-04 1.83017E-04
 -1        62 4.66450E-05 7.63691E-05 9.39904E-05
 -1        63 4.66354E-05 7.63545E-05-9.39695E-05
 -1        64 1.92019E-05 2.35407E-04-1.82973E-04
 -1        65 1.77374E-05 4.85603E-04-2.39805E-04
 -1        66 6.14655E-06 7.65576E-04-2.71239E-04
 -1        67-5.79900E-06 1.06895E-03-2.71159E-04
 -1        68-2.13244E-05 1.36247E-03-2.45673E-04
 -1        69-2.49710E-05 1.60844E-03-1.80531E-04
 -1        70-1.32562E-05 1.77449E-03-9.89028E-05
 -1        71-5.71479E-05 1.82624E-03-2.61114E-05
 -1        72-1.08413E-04 1.84714E-03 2.32270E-05
 -1        73 1.17476E-04 1.65066E-03 1.44153E-04
 -1        74 4.16197E-04 1.37294E-03 2.53233E-04
 -1        78-4.66352E-05 7.63553E-05-9.39701E-05