    1C
    1UUSER                                                              
    1UDATE              18.july.2018                                    
    1UTIME              00:54:15                                        
    1UHOST                                                              
    1UPGM               CalculiX                                        
    1UVERSION           Version 2.13                             
    1UCOMPILETIME       jue jun 14 00:40:39 CEST 2018                    
    1UDIR                                                               
    1UDBN                                                               
    1UMAT    1EL                                                        
    2C                           201                                     1
 -1         1 0.00000E+00 0.00000E+00 0.00000E+00
 -1         2 1.00000E+00 0.00000E+00 0.00000E+00
 -1         3 1.00000E+00 1.00000E+00 0.00000E+00
 -1         4 0.00000E+00 1.00000E+00 0.00000E+00
 -1         9 2.50000E-01 0.00000E+00 0.00000E+00
 -1        10 5.00000E-01 0.00000E+00 0.00000E+00
 -1        11 7.50000E-01 0.00000E+00 0.00000E+00
 -1        12 1.00000E+00 2.50000E-01 0.00000E+00
 -1        13 1.00000E+00 5.00000E-01 0.00000E+00
 -1        14 1.00000E+00 7.50000E-01 0.00000E+00
 -1        15 7.50000E-01 1.00000E+00 0.00000E+00
 -1        16 5.00000E-01 1.00000E+00 0.00000E+00
 -1        17 2.50000E-01 1.00000E+00 0.00000E+00
 -1        18 0.00000E+00 7.50000E-01 0.00000E+00
 -1        19 0.00000E+00 5.00000E-01 0.00000E+00
 -1        20 0.00000E+00 2.50000E-01 0.00000E+00
 -1        33 1.00000E+00 0.00000E+00 5.00000E-01
 -1        34 1.00000E+00 0.00000E+00 1.00000E+00
 -1        35 1.00000E+00 0.00000E+00 1.50000E+00
 -1        36 1.00000E+00 0.00000E+00 2.00000E+00
 -1        37 1.00000E+00 0.00000E+00 2.50000E+00
 -1        38 1.00000E+00 0.00000E+00 3.00000E+00
 -1        39 1.00000E+00 0.00000E+00 3.50000E+00
 -1        40 1.00000E+00 0.00000E+00 4.00000E+00
 -1        41 1.00000E+00 0.00000E+00 4.50000E+00
 -1        42 1.00000E+00 0.00000E+00 5.00000E+00
 -1        43 1.00000E+00 0.00000E+00 5.50000E+00
 -1        44 1.00000E+00 0.00000E+00 6.00000E+00
 -1        51 0.00000E+00 0.00000E+00 6.00000E+00
 -1        52 0.00000E+00 0.00000E+00 5.50000E+00
 -1        53 0.00000E+00 0.00000E+00 5.00000E+00
 -1        54 0.00000E+00 0.00000E+00 4.50000E+00
 -1        55 0.00000E+00 0.00000E+00 4.00000E+00
 -1        56 0.00000E+00 0.00000E+00 3.50000E+00
 -1        57 0.00000E+00 0.00000E+00 3.00000E+00
 -1        58 0.00000E+00 0.00000E+00 2.50000E+00
 -1        59 0.00000E+00 0.00000E+00 2.00000E+00
 -1        60 0.00000E+00 0.00000E+00 1.50000E+00
 -1        61 0.00000E+00 0.00000E+00 1.00000E+00
 -1        62 0.00000E+00 0.00000E+00 5.00000E-01
 -1        63 1.00000E+00 1.00000E+00 5.00000E-01
 -1        64 1.00000E+00 1.00000E+00 1.00000E+00
 -1        65 1.00000E+00 1.00000E+00 1.50000E+00
 -1        66 1.00000E+00 1.00000E+00 2.00000E+00
 -1        67 1.00000E+00 1.00000E+00 2.50000E+00
 -1        68 1.00000E+00 1.00000E+00 3.00000E+00
 -1        69 1.00000E+00 1.00000E+00 3.50000E+00
 -1        70 1.00000E+00 1.00000E+00 4.00000E+00
 -1        71 1.00000E+00 1.00000E+00 4.50000E+00
 -1        72 1.00000E+00 1.00000E+00 5.00000E+00
 -1        73 1.00000E+00 1.00000E+00 5.50000E+00
 -1        74 1.00000E+00 1.00000E+00 6.00000E+00
 -1        78 0.00000E+00 1.00000E+00 5.00000E-01
 -1        79 0.00000E+00 1.00000E+00 1.00000E+00
 -1        80 0.00000E+00 1.00000E+00 1.50000E+00
 -1        81 0.00000E+00 1.00000E+00 2.00000E+00
 -1        82 0.00000E+00 1.00000E+00 2.50000E+00
 -1        83 0.00000E+00 1.00000E+00 3.00000E+00
 -1        84 0.00000E+00 1.00000E+00 3.50000E+00
 -1        85 0.00000E+00 1.00000E+00 4.00000E+00
 -1        86 0.00000E+00 1.00000E+00 4.50000E+00
 -1        87 0.00000E+00 1.00000E+00 5.00000E+00
 -1        88 0.00000E+00 1.00000E+00 5.50000E+00
 -1        89 0.00000E+00 1.00000E+00 6.00000E+00
 -1        93 5.00000E-01 2.50000E-01 0.00000E+00
 -1        94 2.50000E-01 5.00000E-01 0.00000E+00
 -1        95 5.00000E-01 5.00000E-01 0.00000E+00
 -1        96 7.50000E-01 5.00000E-01 0.00000E+00
 -1        97 5.00000E-01 7.50000E-01 0.00000E+00
 -1       103 5.00000E-01 0.00000E+00 5.00000E-01
 -1       104 2.50000E-01 0.00000E+00 1.00000E+00
 -1       105 5.00000E-01 0.00000E+00 1.00000E+00
 -1       106 7.50000E-01 0.00000E+00 1.00000E+00
 -1       107 5.00000E-01 0.00000E+00 1.50000E+00
 -1       108 2.50000E-01 0.00000E+00 2.00000E+00
 -1       109 5.00000E-01 0.00000E+00 2.00000E+00
 -1       110 7.50000E-01 0.00000E+00 2.00000E+00
 -1       111 5.00000E-01 0.00000E+00 2.50000E+00
 -1       112 2.50000E-01 0.00000E+00 3.00000E+00
 -1       113 5.00000E-01 0.00000E+00 3.00000E+00
 -1       114 7.50000E-01 0.00000E+00 3.00000E+00
 -1       115 5.00000E-01 0.00000E+00 3.50000E+00
 -1       116 2.50000E-01 0.00000E+00 4.00000E+00
 -1       117 5.00000E-01 0.00000E+00 4.00000E+00
 -1       118 7.50000E-01 0.00000E+00 4.00000E+00
 -1       119 5.00000E-01 0.00000E+00 4.50000E+00
 -1       120 2.50000E-01 0.00000E+00 5.00000E+00
 -1       121 5.00000E-01 0.00000E+00 5.00000E+00
 -1       122 7.50000E-01 0.00000E+00 5.00000E+00
 -1       123 5.00000E-01 0.00000E+00 5.50000E+00
 -1       124 2.50000E-01 0.00000E+00 6.00000E+00
 -1       125 5.00000E-01 0.00000E+00 6.00000E+00
 -1       126 7.50000E-01 0.00000E+00 6.00000E+00
 -1       132 1.00000E+00 5.00000E-01 5.00000E-01
 -1       133 1.00000E+00 2.50000E-01 1.00000E+00
 -1       134 1.00000E+00 5.00000E-01 1.00000E+00
 -1       135 1.00000E+00 7.50000E-01 1.00000E+00
 -1       136 1.00000E+00 5.00000E-01 1.50000E+00
 -1       137 1.00000E+00 2.50000E-01 2.00000E+00
 -1       138 1.00000E+00 5.00000E-01 2.00000E+00
 -1       139 1.00000E+00 7.50000E-01 2.00000E+00
 -1       140 1.00000E+00 5.00000E-01 2.50000E+00
 -1       141 1.00000E+00 2.50000E-01 3.00000E+00
 -1       142 1.00000E+00 5.00000E-01 3.00000E+00
 -1       143 1.00000E+00 7.50000E-01 3.00000E+00
 -1       144 1.00000E+00 5.00000E-01 3.50000E+00
 -1       145 1.00000E+00 2.50000E-01 4.00000E+00
 -1       146 1.00000E+00 5.00000E-01 4.00000E+00
 -1       147 1.00000E+00 7.50000E-01 4.00000E+00
 -1       148 1.00000E+00 5.00000E-01 4.50000E+00
 -1       149 1.00000E+00 2.50000E-01 5.00000E+00
 -1       150 1.00000E+00 5.00000E-01 5.00000E+00
 -1       151 1.00000E+00 7.50000E-01 5.00000E+00
 -1       152 1.00000E+00 5.00000E-01 5.50000E+00
 -1       153 1.00000E+00 2.50000E-01 6.00000E+00
 -1       154 1.00000E+00 5.00000E-01 6.00000E+00
 -1       155 1.00000E+00 7.50000E-01 6.00000E+00
 -1       161 5.00000E-01 1.00000E+00 5.00000E-01
 -1       162 7.50000E-01 1.00000E+00 1.00000E+00
 -1       163 5.00000E-01 1.00000E+00 1.00000E+00
 -1       164 2.50000E-01 1.00000E+00 1.00000E+00
 -1       165 5.00000E-01 1.00000E+00 1.50000E+00
 -1       166 7.50000E-01 1.00000E+00 2.00000E+00
 -1       167 5.00000E-01 1.00000E+00 2.00000E+00
 -1       168 2.50000E-01 1.00000E+00 2.00000E+00
 -1       169 5.00000E-01 1.00000E+00 2.50000E+00
 -1       170 7.50000E-01 1.00000E+00 3.00000E+00
 -1       171 5.00000E-01 1.00000E+00 3.00000E+00
 -1       172 2.50000E-01 1.00000E+00 3.00000E+00
 -1       173 5.00000E-01 1.00000E+00 3.50000E+00
 -1       174 7.50000E-01 1.00000E+00 4.00000E+00
 -1       175 5.00000E-01 1.00000E+00 4.00000E+00
 -1       176 2.50000E-01 1.00000E+00 4.00000E+00
 -1       177 5.00000E-01 1.00000E+00 4.50000E+00
 -1       178 7.50000E-01 1.00000E+00 5.00000E+00
 -1       179 5.00000E-01 1.00000E+00 5.00000E+00
 -1       180 2.50000E-01 1.00000E+00 5.00000E+00
 -1       181 5.00000E-01 1.00000E+00 5.50000E+00
 -1       182 7.50000E-01 1.00000E+00 6.00000E+00
 -1       183 5.00000E-01 1.00000E+00 6.00000E+00
 -1       184 2.50000E-01 1.00000E+00 6.00000E+00
 -1       190 0.00000E+00 5.00000E-01 5.00000E-01
 -1       191 0.00000E+00 7.50000E-01 1.00000E+00
 -1       192 0.00000E+00 5.00000E-01 1.00000E+00
 -1       193 0.00000E+00 2.50000E-01 1.00000E+00
 -1       194 0.00000E+00 5.00000E-01 1.50000E+00
 -1       195 0.00000E+00 7.50000E-01 2.00000E+00
 -1       196 0.00000E+00 5.00000E-01 2.00000E+00
 -1       197 0.00000E+00 2.50000E-01 2.00000E+00
 -1       198 0.00000E+00 5.00000E-01 2.50000E+00
 -1       199 0.00000E+00 7.50000E-01 3.00000E+00
 -1       200 0.00000E+00 5.00000E-01 3.00000E+00
 -1       201 0.00000E+00 2.50000E-01 3.00000E+00
 -1       202 0.00000E+00 5.00000E-01 3.50000E+00
 -1       203 0.00000E+00 7.50000E-01 4.00000E+00
 -1       204 0.00000E+00 5.00000E-01 4.00000E+00
 -1       205 0.00000E+00 2.50000E-01 4.00000E+00
 -1       206 0.00000E+00 5.00000E-01 4.50000E+00
 -1       207 0.00000E+00 7.50000E-01 5.00000E+00
 -1       208 0.00000E+00 5.00000E-01 5.00000E+00
 -1       209 0.00000E+00 2.50000E-01 5.00000E+00
 -1       210 0.00000E+00 5.00000E-01 5.50000E+00
 -1       211 0.00000E+00 7.50000E-01 6.00000E+00
 -1       212 0.00000E+00 5.00000E-01 6.00000E+00
 -1       213 0.00000E+00 2.50000E-01 6.00000E+00
 -1       219 5.00000E-01 5.00000E-01 5.00000E-01
 -1       220 5.00000E-01 2.50000E-01 1.00000E+00
 -1       221 2.50000E-01 5.00000E-01 1.00000E+00
 -1       222 5.00000E-01 5.00000E-01 1.00000E+00
 -1       223 7.50000E-01 5.00000E-01 1.00000E+00
 -1       224 5.00000E-01 7.50000E-01 1.00000E+00
 -1       225 5.00000E-01 5.00000E-01 1.50000E+00
 -1       226 5.00000E-01 2.50000E-01 2.00000E+00
 -1       227 2.50000E-01 5.00000E-01 2.00000E+00
 -1       228 5.00000E-01 5.00000E-01 2.00000E+00
 -1       229 7.50000E-01 5.00000E-01 2.00000E+00
 -1       230 5.00000E-01 7.50000E-01 2.00000E+00
 -1       231 5.00000E-01 5.00000E-01 2.50000E+00
 -1       232 5.00000E-01 2.50000E-01 3.00000E+00
 -1       233 2.50000E-01 5.00000E-01 3.00000E+00
 -1       234 5.00000E-01 5.00000E-01 3.00000E+00
 -1       235 7.50000E-01 5.00000E-01 3.00000E+00
 -1       236 5.00000E-01 7.50000E-01 3.00000E+00
 -1       237 5.00000E-01 5.00000E-01 3.50000E+00
 -1       238 5.00000E-01 2.50000E-01 4.00000E+00
 -1       239 2.50000E-01 5.00000E-01 4.00000E+00
 -1       240 5.00000E-01 5.00000E-01 4.00000E+00
 -1       241 7.50000E-01 5.00000E-01 4.00000E+00
 -1       242 5.00000E-01 7.50000E-01 4.00000E+00
 -1       243 5.00000E-01 5.00000E-01 4.50000E+00
 -1       244 5.00000E-01 2.50000E-01 5.00000E+00
 -1       245 2.50000E-01 5.00000E-01 5.00000E+00
 -1       246 5.00000E-01 5.00000E-01 5.00000E+00
 -1       247 7.50000E-01 5.00000E-01 5.00000E+00
 -1       248 5.00000E-01 7.50000E-01 5.00000E+00
 -1       249 5.00000E-01 5.00000E-01 5.50000E+00
 -1       250 5.00000E-01 2.50000E-01 6.00000E+00
 -1       251 2.50000E-01 5.00000E-01 6.00000E+00
 -1       252 5.00000E-01 5.00000E-01 6.00000E+00
 -1       253 7.50000E-01 5.00000E-01 6.00000E+00
 -1       254 5.00000E-01 7.50000E-01 6.00000E+00
 -3
    3C                            24                                     1
 -1         1    4    0    1
 -2         1        10        95        19        61       105       222       192         9        93
 -2        94        20        62       103       219       190       104       220       221       193
 -1         2    4    0    1
 -2        10         2        13        95       105        34       134       222        11        12
 -2        96        93       103        33       132       219       106       133       223       220
 -1         3    4    0    1
 -2        19        95        16         4       192       222       163        79        94        97
 -2        17        18       190       219       161        78       221       224       164       191
 -1         4    4    0    1
 -2        95        13         3        16       222       134        64       163        96        14
 -2        15        97       219       132        63       161       223       135       162       224
 -1         5    4    0    1
 -2        61       105       222       192        59       109       228       196       104       220
 -2       221       193        60       107       225       194       108       226       227       197
 -1         6    4    0    1
 -2       105        34       134       222       109        36       138       228       106       133
 -2       223       220       107        35       136       225       110       137       229       226
 -1         7    4    0    1
 -2       192       222       163        79       196       228       167        81       221       224
 -2       164       191       194       225       165        80       227       230       168       195
 -1         8    4    0    1
 -2       222       134        64       163       228       138        66       167       223       135
 -2       162       224       225       136        65       165       229       139       166       230
 -1         9    4    0    1
 -2        59       109       228       196        57       113       234       200       108       226
 -2       227       197        58       111       231       198       112       232       233       201
 -1        10    4    0    1
 -2       109        36       138       228       113        38       142       234       110       137
 -2       229       226       111        37       140       231       114       141       235       232
 -1        11    4    0    1
 -2       196       228       167        81       200       234       171        83       227       230
 -2       168       195       198       231       169        82       233       236       172       199
 -1        12    4    0    1
 -2       228       138        66       167       234       142        68       171       229       139
 -2       166       230       231       140        67       169       235       143       170       236
 -1        13    4    0    1
 -2        57       113       234       200        55       117       240       204       112       232
 -2       233       201        56       115       237       202       116       238       239       205
 -1        14    4    0    1
 -2       113        38       142       234       117        40       146       240       114       141
 -2       235       232       115        39       144       237       118       145       241       238
 -1        15    4    0    1
 -2       200       234       171        83       204       240       175        85       233       236
 -2       172       199       202       237       173        84       239       242       176       203
 -1        16    4    0    1
 -2       234       142        68       171       240       146        70       175       235       143
 -2       170       236       237       144        69       173       241       147       174       242
 -1        17    4    0    1
 -2        55       117       240       204        53       121       246       208       116       238
 -2       239       205        54       119       243       206       120       244       245       209
 -1        18    4    0    1
 -2       117        40       146       240       121        42       150       246       118       145
 -2       241       238       119        41       148       243       122       149       247       244
 -1        19    4    0    1
 -2       204       240       175        85       208       246       179        87       239       242
 -2       176       203       206       243       177        86       245       248       180       207
 -1        20    4    0    1
 -2       240       146        70       175       246       150        72       179       241       147
 -2       174       242       243       148        71       177       247       151       178       248
 -1        21    4    0    1
 -2        53       121       246       208        51       125       252       212       120       244
 -2       245       209        52       123       249       210       124       250       251       213
 -1        22    4    0    1
 -2       121        42       150       246       125        44       154       252       122       149
 -2       247       244       123        43       152       249       126       153       253       250
 -1        23    4    0    1
 -2       208       246       179        87       212       252       183        89       245       248
 -2       180       207       210       249       181        88       251       254       184       211
 -1        24    4    0    1
 -2       246       150        72       179       252       154        74       183       247       151
 -2       178       248       249       152        73       181       253       155       182       254
 -3
    1PSTEP                         1           1           1          
  100CL  101 5.00000E-03         201                     1    1           1
 -4  DISP        4    1
 -5  D1          1    2    1    0
 -5  D2          1    2    2    0
 -5  D3          1    2    3    0
 -5  ALL         1    2    0    0    1ALL
 -1         1 0.00000E+00 0.00000E+00 0.00000E+00
 -1         2 0.00000E+00 0.00000E+00 0.00000E+00
 -1         3 0.00000E+00 0.00000E+00 0.00000E+00
 -1         4 0.00000E+00 0.00000E+00 0.00000E+00
 -1         9 0.00000E+00 0.00000E+00 0.00000E+00
 -1        10 0.00000E+00 0.00000E+00 0.00000E+00
 -1        11 0.00000E+00 0.00000E+00 0.00000E+00
 -1        12 0.00000E+00 0.00000E+00 0.00000E+00
 -1        13 0.00000E+00 0.00000E+00 0.00000E+00
 -1        14 0.00000E+00 0.00000E+00 0.00000E+00
 -1        15 0.00000E+00 0.00000E+00 0.00000E+00
 -1        16 0.00000E+00 0.00000E+00 0.00000E+00
 -1        17 0.00000E+00 0.00000E+00 0.00000E+00
 -1        18 0.00000E+00 0.00000E+00 0.00000E+00
 -1        19 0.00000E+00 0.00000E+00 0.00000E+00
 -1        20 0.00000E+00 0.00000E+00 0.00000E+00
 -1        33 9.22089E-05-1.48619E-04-1.84747E-04
 -1        34 3.87303E-05-4.59786E-04-3.62622E-04
 -1        35 3.58372E-05-9.46462E-04-4.74541E-04
 -1        36 1.30521E-05-1.49802E-03-5.40375E-04
 -1        37-9.32123E-06-2.08410E-03-5.42702E-04
 -1        38-3.70597E-05-2.66502E-03-5.08616E-04
 -1        39-4.59548E-05-3.15335E-03-3.73923E-04
 -1        40-2.73096E-05-3.48846E-03-2.26356E-04
 -1        41-1.15551E-04-3.57410E-03-7.60128E-05
 -1        42-2.39467E-04-3.73017E-03-1.03419E-04
 -1        43 3.22937E-04-3.23348E-03 2.02105E-04
 -1        44 6.81353E-04-2.79635E-03 4.78674E-04
 -1        51-6.81320E-04-2.79633E-03 4.78634E-04
 -1        52-3.22884E-04-3.23348E-03 2.02071E-04
 -1        53 2.39552E-04-3.73017E-03-1.03429E-04
 -1        54 1.15630E-04-3.57410E-03-7.60165E-05
 -1        55 2.73951E-05-3.48846E-03-2.26353E-04
 -1        56 4.60299E-05-3.15335E-03-3.73917E-04
 -1        57 3.71272E-05-2.66502E-03-5.08606E-04
 -1        58 9.37360E-06-2.08410E-03-5.42690E-04
 -1        59-1.30132E-05-1.49802E-03-5.40362E-04
 -1        60-3.58128E-05-9.46461E-04-4.74529E-04
 -1        61-3.87181E-05-4.59785E-04-3.62613E-04
 -1        62-9.22050E-05-1.48617E-04-1.84742E-04
 -1        63-9.01438E-05-1.45830E-04 1.80585E-04
 -1        64-3.83331E-05-4.58733E-04 3.53780E-04
 -1        65-3.22074E-05-9.45390E-04 4.61298E-04
 -1        66-1.16792E-05-1.50517E-03 5.23789E-04
 -1        67 8.80791E-06-2.07171E-03 5.20493E-04
 -1        68 2.83145E-05-2.66275E-03 4.79345E-04
 -1        69 6.70454E-05-3.16744E-03 3.39604E-04
 -1        70 5.74630E-05-3.59184E-03 1.93831E-04
 -1        71 4.64399E-05-3.42343E-03 3.26957E-05
 -1        72 2.17312E-05-3.40185E-03 2.65261E-05
 -1        73 3.47406E-05-3.75933E-03-3.00037E-04
 -1        74-2.53929E-04-3.95654E-03-5.36543E-04
 -1        78 9.01477E-05-1.45832E-04 1.80590E-04
 -1        79 3.83452E-05-4.58734E-04 3.53789E-04
 -1        80 3.22317E-05-9.45390E-04 4.61309E-04
 -1        81 1.17180E-05-1.50517E-03 5.23802E-04
 -1        82-8.75569E-06-2.07171E-03 5.20506E-04
 -1        83-2.82473E-05-2.66275E-03 4.79356E-04
 -1        84-6.69706E-05-3.16744E-03 3.39610E-04
 -1        85-5.73778E-05-3.59184E-03 1.93834E-04
 -1        86-4.63611E-05-3.42342E-03 3.26920E-05
 -1        87-2.16466E-05-3.40185E-03 2.65160E-05
 -1        88-3.46874E-05-3.75932E-03-3.00070E-04
 -1        89 2.53962E-04-3.95656E-03-5.36582E-04
 -1        93 0.00000E+00 0.00000E+00 0.00000E+00
 -1        94 0.00000E+00 0.00000E+00 0.00000E+00
 -1        95 0.00000E+00 0.00000E+00 0.00000E+00
 -1        96 0.00000E+00 0.00000E+00 0.00000E+00
 -1        97 0.00000E+00 0.00000E+00 0.00000E+00
 -1       103 1.36016E-09-1.86069E-04-1.81360E-04
 -1       104-1.97164E-05-4.86331E-04-3.71214E-04
 -1       105 5.83471E-09-4.90717E-04-3.74119E-04
 -1       106 1.97281E-05-4.86332E-04-3.71218E-04
 -1       107 1.20240E-08-9.59648E-04-4.78466E-04
 -1       108-4.46385E-06-1.50608E-03-5.43993E-04
 -1       109 1.89743E-08-1.52054E-03-5.43049E-04
 -1       110 4.50226E-06-1.50608E-03-5.44000E-04
 -1       111 2.67299E-08-2.06580E-03-5.44413E-04
 -1       112 1.13203E-05-2.68378E-03-5.21008E-04
 -1       113 3.25774E-08-2.68132E-03-5.28200E-04
 -1       114-1.12538E-05-2.68378E-03-5.21013E-04
 -1       115 3.89057E-08-3.11843E-03-3.87568E-04
 -1       116 4.08454E-05-3.50140E-03-2.05182E-04
 -1       117 3.97717E-08-3.63149E-03-1.73216E-04
 -1       118-4.07629E-05-3.50140E-03-2.05183E-04
 -1       119 4.32354E-08-3.44643E-03-4.31996E-05
 -1       120 3.49768E-05-3.76759E-03-1.12551E-04
 -1       121 3.51400E-08-3.65981E-03-1.61316E-04
 -1       122-3.48973E-05-3.76759E-03-1.12542E-04
 -1       123 3.14357E-08-3.51490E-03-8.30261E-05
 -1       124-6.50914E-05-3.14570E-03 4.45656E-04
 -1       125 1.46508E-09-3.87470E-03 4.73298E-04
 -1       126 6.51067E-05-3.14570E-03 4.45661E-04
 -1       132 1.14521E-06-9.94370E-05-1.86134E-06
 -1       133 2.04804E-05-4.43420E-04-1.73198E-04
 -1       134 1.24638E-06-4.48704E-04-3.76563E-06
 -1       135-1.91438E-05-4.43228E-04 1.64654E-04
 -1       136 2.11089E-07-9.22557E-04-6.90833E-06
 -1       137 4.92131E-06-1.49590E-03-2.66709E-04
 -1       138 1.04031E-06-1.49183E-03-9.52127E-06
 -1       139-3.24459E-06-1.49811E-03 2.50032E-04
 -1       140 2.04827E-06-2.09348E-03-1.12645E-05
 -1       141-7.30849E-06-2.65275E-03-2.43433E-04
 -1       142 5.87150E-06-2.64683E-03-7.56751E-06
 -1       143 9.74565E-06-2.65686E-03 2.17741E-04
 -1       144-8.66655E-06-3.20833E-03-1.67351E-05
 -1       145-5.64442E-05-3.51573E-03-1.33028E-04
 -1       146-9.61967E-06-3.46741E-03-3.10168E-05
 -1       147 5.21454E-05-3.54844E-03 9.48972E-05
 -1       148 2.38035E-05-3.58461E-03-2.71260E-05
 -1       149 7.33995E-05-3.39530E-03-4.86378E-05
 -1       150 8.42359E-05-3.24927E-03-1.41066E-05
 -1       151-6.24391E-05-3.28847E-03-2.06372E-05
 -1       152-1.26896E-04-3.84114E-03 1.41964E-05
 -1       153-3.55961E-04-3.24144E-03 1.79615E-04
 -1       154-8.41788E-05-2.91434E-03-3.12556E-05
 -1       155 3.07146E-04-3.63114E-03-2.39769E-04
 -1       161 1.34261E-09-1.83961E-04 1.77015E-04
 -1       162-1.93636E-05-4.85118E-04 3.62847E-04
 -1       163 5.80479E-09-4.87225E-04 3.64903E-04
 -1       164 1.93752E-05-4.85118E-04 3.62851E-04
 -1       165 1.19736E-08-9.59349E-04 4.66183E-04
 -1       166-4.49538E-06-1.50218E-03 5.25847E-04
 -1       167 1.89180E-08-1.51498E-03 5.27664E-04
 -1       168 4.53365E-06-1.50218E-03 5.25853E-04
 -1       169 2.66440E-08-2.06640E-03 5.19272E-04
 -1       170 9.97726E-06-2.68322E-03 4.95094E-04
 -1       171 3.25002E-08-2.64518E-03 4.92581E-04
 -1       172-9.91090E-06-2.68322E-03 4.95099E-04
 -1       173 3.87798E-08-3.14160E-03 3.61571E-04
 -1       174 4.29466E-05-3.43993E-03 1.61482E-04
 -1       175 3.96885E-08-3.55801E-03 1.54250E-04
 -1       176-4.28645E-05-3.43993E-03 1.61483E-04
 -1       177 4.30601E-08-3.39482E-03-1.95282E-05
 -1       178-3.84905E-05-3.88423E-03 7.21236E-05
 -1       179 3.50887E-08-3.46115E-03 8.93276E-05
 -1       180 3.85696E-05-3.88423E-03 7.21153E-05
 -1       181 3.11680E-08-3.72482E-03-2.79899E-05
 -1       182 2.76711E-05-2.66600E-03-4.97069E-04
 -1       183 1.65367E-09-4.74758E-03-5.02902E-04
 -1       184-2.76559E-05-2.66600E-03-4.97075E-04
 -1       190-1.14040E-06-9.94371E-05-1.85681E-06
 -1       191 1.91566E-05-4.43229E-04 1.64663E-04
 -1       192-1.23334E-06-4.48705E-04-3.75611E-06
 -1       193-2.04676E-05-4.43420E-04-1.73188E-04
 -1       194-1.86621E-07-9.22557E-04-6.89662E-06
 -1       195 3.28377E-06-1.49811E-03 2.50045E-04
 -1       196-1.00076E-06-1.49183E-03-9.50778E-06
 -1       197-4.88206E-06-1.49590E-03-2.66695E-04
 -1       198-1.99668E-06-2.09348E-03-1.12522E-05
 -1       199-9.67828E-06-2.65686E-03 2.17752E-04
 -1       200-5.80357E-06-2.64683E-03-7.55599E-06
 -1       201 7.37598E-06-2.65275E-03-2.43421E-04
 -1       202 8.74002E-06-3.20833E-03-1.67295E-05
 -1       203-5.20591E-05-3.54844E-03 9.49005E-05
 -1       204 9.70735E-06-3.46741E-03-3.10139E-05
 -1       205 5.65307E-05-3.51573E-03-1.33024E-04
 -1       206-2.37293E-05-3.58461E-03-2.71294E-05
 -1       207 6.25250E-05-3.28847E-03-2.06447E-05
 -1       208-8.41464E-05-3.24927E-03-1.41079E-05
 -1       209-7.33133E-05-3.39529E-03-4.86453E-05
 -1       210 1.26947E-04-3.84114E-03 1.41565E-05
 -1       211-3.07096E-04-3.63115E-03-2.39805E-04
 -1       212 8.42421E-05-2.91434E-03-3.13025E-05
 -1       213 3.56011E-04-3.24143E-03 1.79579E-04
 -1       219 1.83541E-09-1.36607E-04-1.65471E-06
 -1       220 6.05211E-09-4.69949E-04-1.80474E-04
 -1       221-5.96426E-07-4.70778E-04-4.55679E-06
 -1       222 6.01623E-09-4.71511E-04-4.69544E-06
 -1       223 6.08705E-07-4.70778E-04-4.56133E-06
 -1       224 6.03687E-09-4.68037E-04 1.71691E-04
 -1       225 1.22572E-08-9.39223E-04-6.53193E-06
 -1       226 1.88279E-08-1.50691E-03-2.73368E-04
 -1       227-5.31229E-07-1.49019E-03-8.66500E-06
 -1       228 1.86863E-08-1.49196E-03-1.01186E-05
 -1       229 5.69624E-07-1.49019E-03-8.67156E-06
 -1       230 1.88001E-08-1.50447E-03 2.53958E-04
 -1       231 2.67922E-08-2.09629E-03-9.75687E-06
 -1       232 3.20218E-08-2.65674E-03-2.50549E-04
 -1       233-2.66859E-06-2.64657E-03-1.57214E-05
 -1       234 3.16049E-08-2.63538E-03-1.69793E-05
 -1       235 2.73457E-06-2.64657E-03-1.57267E-05
 -1       236 3.19814E-08-2.63768E-03 2.21252E-04
 -1       237 3.87438E-08-3.16713E-03-1.30078E-05
 -1       238 3.85251E-08-3.57552E-03-1.29871E-04
 -1       239 5.98066E-06-3.41333E-03-1.85014E-05
 -1       240 3.76105E-08-3.45263E-03-2.34102E-05
 -1       241-5.89981E-06-3.41333E-03-1.85042E-05
 -1       242 3.84909E-08-3.53887E-03 8.41784E-05
 -1       243 4.39779E-08-3.58434E-03-2.67460E-05
 -1       244 3.30708E-08-3.46307E-03-2.27678E-05
 -1       245-4.22866E-05-3.53261E-03-3.72058E-05
 -1       246 3.12247E-08-3.47940E-03-2.78836E-05
 -1       247 4.23657E-05-3.53261E-03-3.71970E-05
 -1       248 3.30167E-08-3.38249E-03-1.17341E-05
 -1       249 3.10626E-08-3.57212E-03-2.15239E-05
 -1       250-2.77151E-09-4.09441E-03 1.60529E-04
 -1       251 5.32176E-05-2.51020E-03-2.26428E-05
 -1       252-5.49985E-09-3.45822E-03-2.05093E-05
 -1       253-5.31973E-05-2.51020E-03-2.26543E-05
 -1       254-2.55596E-09-4.42859E-03-2.47597E-04
 -3
    1PSTEP                         2           2           1          
  100CL  102 1.00000E-02         201                     1    2           1
 -4  DISP        4    1
 -5  D1          1    2    1    0
 -5  D2          1    2    2    0
 -5  D3          1    2    3    0
 -5  ALL         1    2    0    0    1ALL
 -1         1 0.00000E+00 0.00000E+00 0.00000E+00
 -1         2 0.00000E+00 0.00000E+00 0.00000E+00
 -1         3 0.00000E+00 0.00000E+00 0.00000E+00
 -1         4 0.00000E+00 0.00000E+00 0.00000E+00
 -1         9 0.00000E+00 0.00000E+00 0.00000E+00
 -1        10 0.00000E+00 0.00000E+00 0.00000E+00
 -1        11 0.00000E+00 0.00000E+00 0.00000E+00
 -1        12 0.00000E+00 0.00000E+00 0.00000E+00
 -1        13 0.00000E+00 0.00000E+00 0.00000E+00
 -1        14 0.00000E+00 0.00000E+00 0.00000E+00
 -1        15 0.00000E+00 0.00000E+00 0.00000E+00
 -1        16 0.00000E+00 0.00000E+00 0.00000E+00
 -1        17 0.00000E+00 0.00000E+00 0.00000E+00
 -1        18 0.00000E+00 0.00000E+00 0.00000E+00
 -1        19 0.00000E+00 0.00000E+00 0.00000E+00
 -1        20 0.00000E+00 0.00000E+00 0.00000E+00
 -1        33-4.66465E-05 7.63678E-05 9.39902E-05
 -1        34-1.92086E-05 2.35401E-04 1.83013E-04
 -1        35-1.77738E-05 4.85584E-04 2.39867E-04
 -1        36-6.18150E-06 7.65486E-04 2.71312E-04
 -1        37 5.78152E-06 1.06897E-03 2.71264E-04
 -1        38 2.13608E-05 1.36243E-03 2.45796E-04
 -1        39 2.47786E-05 1.60821E-03 1.80690E-04
 -1        40 1.29382E-05 1.77369E-03 9.90426E-05
 -1        41 5.75993E-05 1.82708E-03 2.63290E-05
 -1        42 1.09895E-04 1.84923E-03-2.30108E-05
 -1        43-1.19789E-04 1.64700E-03-1.43656E-04
 -1        44-4.19459E-04 1.36566E-03-2.52870E-04
 -1        51 4.19354E-04 1.36580E-03-2.52870E-04
 -1        52 1.19675E-04 1.64706E-03-1.43657E-04
 -1        53-1.09973E-04 1.84927E-03-2.29719E-05
 -1        54-5.77130E-05 1.82711E-03 2.63294E-05
 -1        55-1.30312E-05 1.77373E-03 9.90373E-05
 -1        56-2.48709E-05 1.60825E-03 1.80683E-04
 -1        57-2.14320E-05 1.36246E-03 2.45791E-04
 -1        58-5.84418E-06 1.06900E-03 2.71254E-04
 -1        59 6.13749E-06 7.65505E-04 2.71303E-04
 -1        60 1.77421E-05 4.85597E-04 2.39858E-04
 -1        61 1.91921E-05 2.35409E-04 1.83007E-04
 -1        62 4.66396E-05 7.63700E-05 9.39865E-05
 -1        63 4.66333E-05 7.63519E-05-9.39651E-05
 -1        64 1.91986E-05 2.35395E-04-1.82962E-04
 -1        65 1.77370E-05 4.85577E-04-2.39789E-04
 -1        66 6.14283E-06 7.65519E-04-2.71212E-04
 -1        67-5.81486E-06 1.06891E-03-2.71138E-04
 -1        68-2.13537E-05 1.36242E-03-2.45647E-04
 -1        69-2.49494E-05 1.60828E-03-1.80507E-04
 -1        70-1.31998E-05 1.77417E-03-9.88309E-05
 -1        71-5.72893E-05 1.82638E-03-2.60962E-05
 -1        72-1.08681E-04 1.84761E-03 2.32685E-05
 -1        73 1.17821E-04 1.64950E-03 1.44088E-04
 -1        74 4.16843E-04 1.37084E-03 2.53271E-04
 -1        78-4.66320E-05 7.63575E-05-9.39684E-05