    1C
    1UUSER                                                              
    1UDATE              18.july.2018                                    
    1UTIME              00:39:08                                        
    1UHOST                                                              
    1UPGM               CalculiX                                        
    1UVERSION           Version 2.13                             
    1UCOMPILETIME       jue jun 14 00:40:39 CEST 2018                    
    1UDIR                                                               
    1UDBN                                                               
    1UMAT    1EL                                                        
    2C                            81                                     1
 -1         5 0.00000E+00 0.00000E+00 8.00000E+00
 -1         6 1.00000E+00 0.00000E+00 8.00000E+00
 -1         7 1.00000E+00 1.00000E+00 8.00000E+00
 -1         8 0.00000E+00 1.00000E+00 8.00000E+00
 -1        21 2.50000E-01 0.00000E+00 8.00000E+00
 -1        22 5.00000E-01 0.00000E+00 8.00000E+00
 -1        23 7.50000E-01 0.00000E+00 8.00000E+00
 -1        24 1.00000E+00 2.50000E-01 8.00000E+00
 -1        25 1.00000E+00 5.00000E-01 8.00000E+00
 -1        26 1.00000E+00 7.50000E-01 8.00000E+00
 -1        27 7.50000E-01 1.00000E+00 8.00000E+00
 -1        28 5.00000E-01 1.00000E+00 8.00000E+00
 -1        29 2.50000E-01 1.00000E+00 8.00000E+00
 -1        30 0.00000E+00 7.50000E-01 8.00000E+00
 -1        31 0.00000E+00 5.00000E-01 8.00000E+00
 -1        32 0.00000E+00 2.50000E-01 8.00000E+00
 -1        44 1.00000E+00 0.00000E+00 6.00000E+00
 -1        45 1.00000E+00 0.00000E+00 6.50000E+00
 -1        46 1.00000E+00 0.00000E+00 7.00000E+00
 -1        47 1.00000E+00 0.00000E+00 7.50000E+00
 -1        48 0.00000E+00 0.00000E+00 7.50000E+00
 -1        49 0.00000E+00 0.00000E+00 7.00000E+00
 -1        50 0.00000E+00 0.00000E+00 6.50000E+00
 -1        51 0.00000E+00 0.00000E+00 6.00000E+00
 -1        74 1.00000E+00 1.00000E+00 6.00000E+00
 -1        75 1.00000E+00 1.00000E+00 6.50000E+00
 -1        76 1.00000E+00 1.00000E+00 7.00000E+00
 -1        77 1.00000E+00 1.00000E+00 7.50000E+00
 -1        89 0.00000E+00 1.00000E+00 6.00000E+00
 -1        90 0.00000E+00 1.00000E+00 6.50000E+00
 -1        91 0.00000E+00 1.00000E+00 7.00000E+00
 -1        92 0.00000E+00 1.00000E+00 7.50000E+00
 -1        98 5.00000E-01 2.50000E-01 8.00000E+00
 -1        99 2.50000E-01 5.00000E-01 8.00000E+00
 -1       100 5.00000E-01 5.00000E-01 8.00000E+00
 -1       101 7.50000E-01 5.00000E-01 8.00000E+00
 -1       102 5.00000E-01 7.50000E-01 8.00000E+00
 -1       124 2.50000E-01 0.00000E+00 6.00000E+00
 -1       125 5.00000E-01 0.00000E+00 6.00000E+00
 -1       126 7.50000E-01 0.00000E+00 6.00000E+00
 -1       127 5.00000E-01 0.00000E+00 6.50000E+00
 -1       128 2.50000E-01 0.00000E+00 7.00000E+00
 -1       129 5.00000E-01 0.00000E+00 7.00000E+00
 -1       130 7.50000E-01 0.00000E+00 7.00000E+00
 -1       131 5.00000E-01 0.00000E+00 7.50000E+00
 -1       153 1.00000E+00 2.50000E-01 6.00000E+00
 -1       154 1.00000E+00 5.00000E-01 6.00000E+00
 -1       155 1.00000E+00 7.50000E-01 6.00000E+00
 -1       156 1.00000E+00 5.00000E-01 6.50000E+00
 -1       157 1.00000E+00 2.50000E-01 7.00000E+00
 -1       158 1.00000E+00 5.00000E-01 7.00000E+00
 -1       159 1.00000E+00 7.50000E-01 7.00000E+00
 -1       160 1.00000E+00 5.00000E-01 7.50000E+00
 -1       182 7.50000E-01 1.00000E+00 6.00000E+00
 -1       183 5.00000E-01 1.00000E+00 6.00000E+00
 -1       184 2.50000E-01 1.00000E+00 6.00000E+00
 -1       185 5.00000E-01 1.00000E+00 6.50000E+00
 -1       186 7.50000E-01 1.00000E+00 7.00000E+00
 -1       187 5.00000E-01 1.00000E+00 7.00000E+00
 -1       188 2.50000E-01 1.00000E+00 7.00000E+00
 -1       189 5.00000E-01 1.00000E+00 7.50000E+00
 -1       211 0.00000E+00 7.50000E-01 6.00000E+00
 -1       212 0.00000E+00 5.00000E-01 6.00000E+00
 -1       213 0.00000E+00 2.50000E-01 6.00000E+00
 -1       214 0.00000E+00 5.00000E-01 6.50000E+00
 -1       215 0.00000E+00 7.50000E-01 7.00000E+00
 -1       216 0.00000E+00 5.00000E-01 7.00000E+00
 -1       217 0.00000E+00 2.50000E-01 7.00000E+00
 -1       218 0.00000E+00 5.00000E-01 7.50000E+00
 -1       250 5.00000E-01 2.50000E-01 6.00000E+00
 -1       251 2.50000E-01 5.00000E-01 6.00000E+00
 -1       252 5.00000E-01 5.00000E-01 6.00000E+00
 -1       253 7.50000E-01 5.00000E-01 6.00000E+00
 -1       254 5.00000E-01 7.50000E-01 6.00000E+00
 -1       255 5.00000E-01 5.00000E-01 6.50000E+00
 -1       256 5.00000E-01 2.50000E-01 7.00000E+00
 -1       257 2.50000E-01 5.00000E-01 7.00000E+00
 -1       258 5.00000E-01 5.00000E-01 7.00000E+00
 -1       259 7.50000E-01 5.00000E-01 7.00000E+00
 -1       260 5.00000E-01 7.50000E-01 7.00000E+00
 -1       261 5.00000E-01 5.00000E-01 7.50000E+00
 -3
    3C                             8                                     1
 -1        25    4    0    1
 -2        51       125       252       212        49       129       258       216       124       250
 -2       251       213        50       127       255       214       128       256       257       217
 -1        26    4    0    1
 -2       125        44       154       252       129        46       158       258       126       153
 -2       253       250       127        45       156       255       130       157       259       256
 -1        27    4    0    1
 -2       212       252       183        89       216       258       187        91       251       254
 -2       184       211       214       255       185        90       257       260       188       215
 -1        28    4    0    1
 -2       252       154        74       183       258       158        76       187       253       155
 -2       182       254       255       156        75       185       259       159       186       260
 -1        29    4    0    1
 -2        49       129       258       216         5        22       100        31       128       256
 -2       257       217        48       131       261       218        21        98        99        32
 -1        30    4    0    1
 -2       129        46       158       258        22         6        25       100       130       157
 -2       259       256       131        47       160       261        23        24       101        98
 -1        31    4    0    1
 -2       216       258       187        91        31       100        28         8       257       260
 -2       188       215       218       261       189        92        99       102        29        30
 -1        32    4    0    1
 -2       258       158        76       187       100        25         7        28       259       159
 -2       186       260       261       160        77       189       101        26        27       102
 -3
    1PSTEP                         1           1           1          
  100CL  101 5.00000E-03          81                     1    1           1
 -4  DISP        4    1
 -5  D1          1    2    1    0
 -5  D2          1    2    2    0
 -5  D3          1    2    3    0
 -5  ALL         1    2    0    0    1ALL
 -1         5 0.00000E+00 0.00000E+00 0.00000E+00
 -1         6 0.00000E+00 0.00000E+00 0.00000E+00
 -1         7 0.00000E+00 0.00000E+00 0.00000E+00
 -1         8 0.00000E+00 0.00000E+00 0.00000E+00
 -1        21 0.00000E+00 0.00000E+00 0.00000E+00
 -1        22 0.00000E+00 0.00000E+00 0.00000E+00
 -1        23 0.00000E+00 0.00000E+00 0.00000E+00
 -1        24 0.00000E+00 0.00000E+00 0.00000E+00
 -1        25 0.00000E+00 0.00000E+00 0.00000E+00
 -1        26 0.00000E+00 0.00000E+00 0.00000E+00
 -1        27 0.00000E+00 0.00000E+00 0.00000E+00
 -1        28 0.00000E+00 0.00000E+00 0.00000E+00
 -1        29 0.00000E+00 0.00000E+00 0.00000E+00
 -1        30 0.00000E+00 0.00000E+00 0.00000E+00
 -1        31 0.00000E+00 0.00000E+00 0.00000E+00
 -1        32 0.00000E+00 0.00000E+00 0.00000E+00
 -1        44 6.79171E-04-2.79650E-03 4.78392E-04
 -1        45 3.28643E-04-2.29950E-03 6.58710E-04
 -1        46-2.20000E-04-1.76267E-03 8.53972E-04
 -1        47 1.24820E-04-7.03316E-04 4.60556E-04
 -1        48-1.24808E-04-7.03302E-04 4.60535E-04
 -1        49 2.20060E-04-1.76266E-03 8.53918E-04
 -1        50-3.28526E-04-2.29949E-03 6.58617E-04
 -1        51-6.78898E-04-2.79646E-03 4.78225E-04
 -1        74-2.45417E-04-3.96123E-03-5.36071E-04
 -1        75 2.13918E-05-2.83163E-03-6.71058E-04
 -1        76 2.37477E-05-1.50736E-03-8.65844E-04
 -1        77-2.24559E-04-5.26895E-04-4.69757E-04
 -1        89 2.45689E-04-3.96127E-03-5.36238E-04
 -1        90-2.12746E-05-2.83164E-03-6.71151E-04
 -1        91-2.36873E-05-1.50737E-03-8.65899E-04
 -1        92 2.24570E-04-5.26909E-04-4.69778E-04
 -1        98 0.00000E+00 0.00000E+00 0.00000E+00
 -1        99 0.00000E+00 0.00000E+00 0.00000E+00
 -1       100 0.00000E+00 0.00000E+00 0.00000E+00
 -1       101 0.00000E+00 0.00000E+00 0.00000E+00
 -1       102 0.00000E+00 0.00000E+00 0.00000E+00
 -1       124-6.76881E-05-3.14476E-03 4.45134E-04
 -1       125 1.07462E-07-3.87095E-03 4.73216E-04
 -1       126 6.79241E-05-3.14478E-03 4.45192E-04
 -1       127 6.59791E-08-2.57287E-03 9.44221E-04
 -1       128 3.58419E-05-1.80080E-03 9.12953E-04
 -1       129 1.98601E-08-1.69906E-03 9.45156E-04
 -1       130-3.57928E-05-1.80081E-03 9.12987E-04
 -1       131 2.90600E-09-6.85648E-04 4.66396E-04
 -1       153-3.53655E-04-3.23631E-03 1.79521E-04
 -1       154-8.26061E-05-2.90971E-03-3.12663E-05
 -1       155 3.03009E-04-3.63090E-03-2.39473E-04
 -1       156-1.20384E-04-2.88648E-03-7.96668E-05
 -1       157 7.68472E-05-1.46308E-03 3.71029E-04
 -1       158 8.87423E-05-1.37410E-03-2.88439E-05
 -1       159-3.09374E-05-1.39379E-03-3.90250E-04
 -1       160 3.87252E-05-5.34129E-04 1.36855E-06
 -1       182 3.06536E-05-2.66364E-03-4.96575E-04
 -1       183 1.07513E-07-4.74464E-03-5.02518E-04
 -1       184-3.04176E-05-2.66365E-03-4.96633E-04
 -1       185 6.59026E-08-2.85270E-03-9.16442E-04
 -1       186-2.31380E-05-2.02767E-03-9.63804E-04
 -1       187 1.98833E-08-1.70233E-03-9.80667E-04
 -1       188 2.31871E-05-2.02768E-03-9.63837E-04
 -1       189 2.89388E-09-6.58844E-04-4.67985E-04
 -1       211-3.02726E-04-3.63092E-03-2.39619E-04
 -1       212 8.28871E-05-2.90971E-03-3.14114E-05
 -1       213 3.53938E-04-3.23629E-03 1.79375E-04
 -1       214 1.20508E-04-2.88648E-03-7.97580E-05
 -1       215 3.10013E-05-1.39380E-03-3.90308E-04
 -1       216-8.86770E-05-1.37410E-03-2.89000E-05
 -1       217-7.67832E-05-1.46307E-03 3.70972E-04
 -1       218-3.87068E-05-5.34129E-04 1.34934E-06
 -1       250 1.11484E-07-4.09409E-03 1.60346E-04
 -1       251 5.46237E-05-2.50942E-03-2.26218E-05
 -1       252 1.14030E-07-3.45547E-03-2.04619E-05
 -1       253-5.43761E-05-2.50942E-03-2.25763E-05
 -1       254 1.11598E-07-4.42472E-03-2.47392E-04
 -1       255 6.90824E-08-2.63051E-03-3.50403E-05
 -1       256 2.20004E-08-1.53670E-03 3.87874E-04
 -1       257-5.08958E-05-1.67495E-03-9.73465E-06
 -1       258 2.25448E-08-1.62464E-03-1.71725E-05
 -1       259 5.09498E-05-1.67495E-03-9.70056E-06
 -1       260 2.19934E-08-1.55878E-03-4.23888E-04
 -1       261 6.24526E-09-6.58332E-04-3.55974E-06
 -3
    1PSTEP                         2           2           1          
  100CL  102 1.00000E-02          81                     1    2           1
 -4  DISP        4    1
 -5  D1          1    2    1    0
 -5  D2          1    2    2    0
 -5  D3          1    2    3    0
 -5  ALL         1    2    0    0    1ALL
 -1         5 0.00000E+00 0.00000E+00 0.00000E+00
 -1         6 0.00000E+00 0.00000E+00 0.00000E+00
 -1         7 0.00000E+00 0.00000E+00 0.00000E+00
 -1         8 0.00000E+00 0.00000E+00 0.00000E+00
 -1        21 0.00000E+00 0.00000E+00 0.00000E+00
 -1        22 0.00000E+00 0.00000E+00 0.00000E+00
 -1        23 0.00000E+00 0.00000E+00 0.00000E+00
 -1        24 0.00000E+00 0.00000E+00 0.00000E+00
 -1        25 0.00000E+00 0.00000E+00 0.00000E+00
 -1        26 0.00000E+00 0.00000E+00 0.00000E+00
 -1        27 0.00000E+00 0.00000E+00 0.00000E+00
 -1        28 0.00000E+00 0.00000E+00 0.00000E+00
 -1        29 0.00000E+00 0.00000E+00 0.00000E+00
 -1        30 0.00000E+00 0.00000E+00 0.00000E+00
 -1        31 0.00000E+00 0.00000E+00 0.00000E+00
 -1        32 0.00000E+00 0.00000E+00 0.00000E+00
 -1        44-4.25668E-04 1.35810E-03-2.52773E-04
 -1        45-1.25369E-04 1.17970E-03-3.17394E-04
 -1        46 1.07061E-04 8.75380E-04-3.83656E-04
 -1        47-6.71328E-05 3.78409E-04-2.50466E-04
 -1        48 6.71446E-05 3.78403E-04-2.50453E-04
 -1        49-1.06985E-04 8.75351E-04-3.83656E-04
 -1        50 1.25392E-04 1.17968E-03-3.17462E-04
 -1        51 4.25845E-04 1.35812E-03-2.52892E-04
 -1        74 4.11736E-04 1.37347E-03 2.53330E-04
 -1        75 1.17212E-04 1.18794E-03 3.17827E-04
 -1        76-1.02239E-04 8.70929E-04 3.83828E-04
 -1        77 6.94976E-05 3.75946E-04 2.50471E-04
 -1        89-4.11716E-04 1.37333E-03 2.53256E-04
 -1        90-1.17227E-04 1.18789E-03 3.17774E-04
 -1        91 1.02246E-04 8.70898E-04 3.83808E-04
 -1        92-6.95032E-05 3.75938E-04 2.50474E-04
 -1        98 0.00000E+00 0.00000E+00 0.00000E+00
 -1        99 0.00000E+00 0.00000E+00 0.00000E+00
 -1       100 0.00000E+00 0.00000E+00 0.00000E+00
 -1       101 0.00000E+00 0.00000E+00 0.00000E+00
 -1       102 0.00000E+00 0.00000E+00 0.00000E+00
 -1       124 3.09020E-05 1.52773E-03-2.34661E-04
 -1       125 1.77950E-08 1.91233E-03-2.45001E-04
 -1       126-3.07985E-05 1.52776E-03-2.34684E-04
 -1       127 5.09829E-08 1.32666E-03-4.44334E-04
 -1       128-7.04564E-06 8.88582E-04-4.45397E-04
 -1       129 1.69781E-09 8.25287E-04-4.72339E-04
 -1       130 7.08360E-06 8.88588E-04-4.45380E-04
 -1       131 9.48876E-09 3.59918E-04-2.34747E-04
 -1       153 3.02885E-04 1.79639E-03-1.04730E-04
 -1       154-2.72348E-06 1.90540E-03 3.07644E-07
 -1       155-2.97848E-04 1.80116E-03 1.05032E-04
 -1       156 3.20528E-07 1.45414E-03 9.83177E-07
 -1       157-6.36986E-05 7.61341E-04-1.72889E-04
 -1       158-1.02789E-07 7.33492E-04 2.48819E-07
 -1       159 6.24377E-05 7.59942E-04 1.72885E-04
 -1       160-1.24296E-08 2.52273E-04 6.36753E-08
 -1       182 2.68824E-05 1.52261E-03 2.35011E-04
 -1       183-9.81875E-12 1.91856E-03 2.45090E-04
 -1       184-2.68662E-05 1.52256E-03 2.34994E-04
 -1       185 2.11729E-09 1.32681E-03 4.42893E-04
 -1       186-5.54509E-06 8.90366E-04 4.45819E-04
 -1       187-7.58454E-09 8.25841E-04 4.72213E-04
 -1       188 5.53759E-06 8.90346E-04 4.45801E-04
 -1       189-2.66710E-09 3.60034E-04 2.34656E-04
 -1       211 2.97902E-04 1.80106E-03 1.04975E-04
 -1       212 2.78164E-06 1.90539E-03 2.11290E-07
 -1       213-3.02733E-04 1.79642E-03-1.04751E-04
 -1       214-2.67471E-07 1.45410E-03 9.55986E-07
 -1       215-6.24326E-05 7.59925E-04 1.72865E-04
 -1       216 1.09295E-07 7.33480E-04 2.39867E-07
 -1       217 6.37331E-05 7.61315E-04-1.72916E-04
 -1       218 2.02429E-08 2.52261E-04 5.37589E-08
 -1       250 3.38764E-08 1.93228E-03-9.95604E-05
 -1       251 7.97058E-07 1.19113E-03 3.80934E-08
 -1       252 6.65624E-08 1.73183E-03 1.17769E-07
 -1       253-7.00475E-07 1.19114E-03 1.11655E-07
 -1       254 3.02299E-08 1.93407E-03 1.00240E-04
 -1       255 1.89526E-08 1.37421E-03 1.50019E-07
 -1       256 9.27969E-09 7.57778E-04-2.08639E-04
 -1       257 1.95432E-07 9.02724E-04-1.29661E-08
 -1       258 1.26026E-08 7.59573E-04 8.36754E-08
 -1       259-1.79485E-07 9.02731E-04-1.43474E-08
 -1       260 3.32618E-09 7.58283E-04 2.08928E-04
 -1       261-1.51033E-09 3.26951E-04 6.62789E-09
 -3
    1PSTEP                         3           3           1          
  100CL  103 1.50000E-02          81                     1    3           1
 -4  DISP        4    1
 -5  D1          1    2    1    0
 -5  D2          1    2    2    0
 -5  D3          1    2    3    0
 -5  ALL         1    2    0    0    1ALL
 -1         5 0.00000E+00 0.00000E+00 0.00000E+00
 -1         6 0.00000E+00 0.00000E+00 0.00000E+00
 -1         7 0.00000E+00 0.00000E+00 0.00000E+00
 -1         8 0.00000E+00 0.00000E+00 0.00000E+00
 -1        21 0.00000E+00 0.00000E+00 0.00000E+00
 -1        22 0.00000E+00 0.00000E+00 0.00000E+00
 -1        23 0.00000E+00 0.00000E+00 0.00000E+00
 -1        24 0.00000E+00 0.00000E+00 0.00000E+00
 -1        25 0.00000E+00 0.00000E+00 0.00000E+00
 -1        26 0.00000E+00 0.00000E+00 0.00000E+00
 -1        27 0.00000E+00 0.00000E+00 0.00000E+00
 -1        28 0.00000E+00 0.00000E+00 0.00000E+00
 -1        29 0.00000E+00 0.00000E+00 0.00000E+00
 -1        30 0.00000E+00 0.00000E+00 0.00000E+00
 -1        31 0.00000E+00 0.00000E+00 0.00000E+00
 -1        32 0.00000E+00 0.00000E+00 0.00000E+00
 -1        44 3.34168E-04-1.08007E-03 2.00462E-04
 -1        45 9.72264E-05-9.36773E-04 2.51531E-04
 -1        46-8.35348E-05-6.91995E-04 3.03693E-04
 -1        47 5.37415E-05-2.99272E-04 1.98488E-04
 -1        48-5.37483E-05-2.99286E-04 1.98523E-04
 -1        49 8.35585E-05-6.91995E-04 3.03710E-04
 -1        50-9.73050E-05-9.36785E-04 2.51534E-04
 -1        51-3.34217E-04-1.07995E-03 2.00432E-04
 -1        74-3.31071E-04-1.08485E-03-2.00471E-04
 -1        75-9.52247E-05-9.39242E-04-2.51475E-04
 -1        76 8.26311E-05-6.90856E-04-3.03676E-04
 -1        77-5.42941E-05-2.98556E-04-1.98506E-04
 -1        89 3.30991E-04-1.08491E-03-2.00461E-04
 -1        90 9.51519E-05-9.39287E-04-2.51506E-04
 -1        91-8.26428E-05-6.90838E-04-3.03652E-04
 -1        92 5.42891E-05-2.98553E-04-1.98493E-04
 -1        98 0.00000E+00 0.00000E+00 0.00000E+00
 -1        99 0.00000E+00 0.00000E+00 0.00000E+00
 -1       100 0.00000E+00 0.00000E+00 0.00000E+00
 -1       101 0.00000E+00 0.00000E+00 0.00000E+00
 -1       102 0.00000E+00 0.00000E+00 0.00000E+00
 -1       124-2.46024E-05-1.20822E-03 1.85951E-04
 -1       125-9.15835E-08-1.51649E-03 1.94030E-04
 -1       126 2.44964E-05-1.20822E-03 1.85920E-04
 -1       127-1.71015E-09-1.05134E-03 3.51351E-04
 -1       128 5.40155E-06-7.04236E-04 3.52766E-04
 -1       129-2.38974E-08-6.53452E-04 3.74026E-04
 -1       130-5.41646E-06-7.04248E-04 3.52767E-04
 -1       131 3.54408E-09-2.85109E-04 1.85938E-04
 -1       153-2.38998E-04-1.42340E-03 8.30538E-05
 -1       154 2.02024E-07-1.50940E-03 2.34756E-08
 -1       155 2.38051E-04-1.42722E-03-8.30730E-05
 -1       156-3.32512E-07-1.15091E-03-2.51451E-07
 -1       157 5.02434E-05-6.03301E-04 1.36853E-04
 -1       158 7.16419E-08-5.81986E-04-7.86170E-08
 -1       159-5.00559E-05-6.02427E-04-1.36817E-04
 -1       160 7.39484E-08-2.00105E-04-8.94949E-09
 -1       182-2.14231E-05-1.20631E-03-1.85956E-04
 -1       183-3.02505E-08-1.51924E-03-1.94070E-04
 -1       184 2.13630E-05-1.20630E-03-1.85917E-04
 -1       185-2.23271E-08-1.05183E-03-3.50943E-04
 -1       186 4.59627E-06-7.04708E-04-3.52853E-04
 -1       187-1.67075E-08-6.52903E-04-3.73961E-04
 -1       188-4.62229E-06-7.04707E-04-3.52850E-04
 -1       189-1.17283E-09-2.84954E-04-1.85909E-04
 -1       211-2.38066E-04-1.42732E-03-8.30790E-05
 -1       212-2.39707E-07-1.50948E-03-6.09720E-08
 -1       213 2.38969E-04-1.42335E-03 8.30939E-05
 -1       214 2.96201E-07-1.15089E-03-2.34628E-07
 -1       215 5.00288E-05-6.02424E-04-1.36798E-04
 -1       216-9.63240E-08-5.82013E-04-5.01358E-08
 -1       217-5.02481E-05-6.03321E-04 1.36853E-04
 -1       218-8.07968E-08-2.00106E-04-9.61285E-10
 -1       250-5.57560E-08-1.53044E-03 7.90611E-05
 -1       251 1.16907E-06-9.44375E-04-2.81615E-08
 -1       252 2.04317E-09-1.36915E-03-8.29880E-09
 -1       253-1.18973E-06-9.44328E-04 1.57502E-08
 -1       254-2.04750E-08-1.52905E-03-7.91384E-05
 -1       255-1.53719E-08-1.08797E-03-2.01917E-08
 -1       256-1.42259E-08-6.00221E-04 1.65374E-04
 -1       257-3.30038E-07-7.15173E-04 3.69545E-08
 -1       258-8.35611E-09-6.01981E-04 5.69586E-10
 -1       259 3.11292E-07-7.15161E-04 2.28374E-08
 -1       260-1.11505E-08-6.00542E-04-1.65425E-04
 -1       261-6.65073E-09-2.59305E-04-1.37947E-08
 -3
    1PSTEP                         4           4           1          
  100CL  104 2.00000E-02          81                     1    4           1
 -4  DISP        4    1
 -5  D1          1    2    1    0
 -5  D2          1    2    2    0
 -5  D3          1    2    3    0
 -5  ALL         1    2    0    0    1ALL
 -1         5 0.00000E+00 0.00000E+00 0.00000E+00
 -1         6 0.00000E+00 0.00000E+00 0.00000E+00
 -1         7 0.00000E+00 0.00000E+00 0.00000E+00
 -1         8 0.00000E+00 0.00000E+00 0.00000E+00
 -1        21 0.00000E+00 0.00000E+00 0.00000E+00
 -1        22 0.00000E+00 0.00000E+00 0.00000E+00
 -1        23 0.00000E+00 0.00000E+00 0.00000E+00
 -1        24 0.00000E+00 0.00000E+00 0.00000E+00
 -1        25 0.00000E+00 0.00000E+00 0.00000E+00
 -1        26 0.00000E+00 0.00000E+00 0.00000E+00
 -1        27 0.00000E+00 0.00000E+00 0.00000E+00
 -1        28 0.00000E+00 0.00000E+00 0.00000E+00
 -1        29 0.00000E+00 0.00000E+00 0.00000E+00
 -1        30 0.00000E+00 0.00000E+00 0.00000E+00
 -1        31 0.00000E+00 0.00000E+00 0.00000E+00
 -1        32 0.00000E+00 0.00000E+00 0.00000E+00
 -1        44-2.58291E-04 8.39564E-04-1.55615E-04
 -1        45-7.46260E-05 7.27573E-04-1.95316E-04
 -1        46 6.45675E-05 5.37168E-04-2.35684E-04
 -1        47-4.18847E-05 2.32204E-04-1.54106E-04
 -1        48 4.18867E-05 2.32206E-04-1.54111E-04
 -1        49-6.45755E-05 5.37161E-04-2.35680E-04
 -1        50 7.46339E-05 7.27581E-04-1.95327E-04
 -1        51 2.58274E-04 8.39556E-04-1.55606E-04
 -1        74 2.58579E-04 8.38348E-04 1.55627E-04
 -1        75 7.49118E-05 7.27040E-04 1.95382E-04
 -1        76-6.46239E-05 5.37388E-04 2.35714E-04
 -1        77 4.18259E-05 2.32364E-04 1.54105E-04
 -1        89-2.58573E-04 8.38333E-04 1.55617E-04
 -1        90-7.49209E-05 7.27049E-04 1.95391E-04
 -1        91 6.46305E-05 5.37380E-04 2.35711E-04
 -1        92-4.18280E-05 2.32366E-04 1.54111E-04
 -1        98 0.00000E+00 0.00000E+00 0.00000E+00
 -1        99 0.00000E+00 0.00000E+00 0.00000E+00
 -1       100 0.00000E+00 0.00000E+00 0.00000E+00
 -1       101 0.00000E+00 0.00000E+00 0.00000E+00
 -1       102 0.00000E+00 0.00000E+00 0.00000E+00
 -1       124 1.72899E-05 9.37528E-04-1.44352E-04
 -1       125 1.87936E-08 1.17674E-03-1.50669E-04
 -1       126-1.72787E-05 9.37526E-04-1.44348E-04
 -1       127-5.05368E-09 8.16075E-04-2.72390E-04
 -1       128-3.79768E-06 5.46637E-04-2.73817E-04
 -1       129 4.63500E-09 5.06949E-04-2.90238E-04
 -1       130 3.79804E-06 5.46642E-04-2.73820E-04
 -1       131-5.93245E-10 2.21352E-04-1.44291E-04
 -1       153 1.85299E-04 1.10771E-03-6.45099E-05
 -1       154-1.94377E-07 1.17349E-03 1.24188E-08
 -1       155-1.85249E-04 1.10647E-03 6.45234E-05
 -1       156-1.60604E-07 8.93386E-04-4.14298E-08
 -1       157-3.89510E-05 4.68044E-04-1.06151E-04
 -1       158 6.84137E-08 4.51824E-04-1.68783E-08
 -1       159 3.89367E-05 4.68295E-04 1.06161E-04
 -1       160 4.68451E-08 1.55236E-04 2.47206E-09
 -1       182 1.81579E-05 9.38079E-04 1.44362E-04
 -1       183-2.04933E-08 1.17578E-03 1.50701E-04
 -1       184-1.81754E-05 9.38078E-04 1.44364E-04
 -1       185 3.85652E-09 8.15762E-04 2.72447E-04
 -1       186-3.99806E-06 5.46520E-04 2.73810E-04
 -1       187-4.84564E-09 5.07243E-04 2.90243E-04
 -1       188 3.99657E-06 5.46515E-04 2.73808E-04
 -1       189 4.95700E-10 2.21448E-04 1.44299E-04
 -1       211 1.85247E-04 1.10648E-03 6.45273E-05
 -1       212 1.97200E-07 1.17353E-03 6.67211E-09
 -1       213-1.85299E-04 1.10772E-03-6.45119E-05
 -1       214 1.58448E-07 8.93377E-04-4.17232E-08
 -1       215-3.89320E-05 4.68296E-04 1.06158E-04
 -1       216-6.76566E-08 4.51833E-04-1.62222E-08
 -1       217 3.89460E-05 4.68044E-04-1.06148E-04
 -1       218-4.71165E-08 1.55234E-04 3.17888E-09
 -1       250 1.07837E-08 1.18565E-03-6.14021E-05
 -1       251 5.10915E-07 7.32660E-04-5.31699E-09
 -1       252-7.94172E-10 1.06262E-03 4.80120E-09
 -1       253-5.10449E-07 7.32637E-04-3.81599E-09
 -1       254-1.25100E-08 1.18610E-03 6.14300E-05
 -1       255-3.11703E-11 8.44942E-04-3.58844E-09
 -1       256 1.78638E-09 4.66000E-04-1.28418E-04
 -1       257-1.23738E-07 5.55245E-04 1.05743E-08
 -1       258-5.85122E-10 4.66826E-04 2.98559E-09
 -1       259 1.23549E-07 5.55240E-04 1.05473E-08
 -1       260-2.47765E-09 4.65944E-04 1.28411E-04
 -1       261-3.87647E-11 2.01157E-04-7.21623E-09
 -3
    1PSTEP                         5           5           1          
  100CL  105 2.50000E-02          81                     1    5           1
 -4  DISP        4    1
 -5  D1          1    2    1    0
 -5  D2          1    2    2    0
 -5  D3          1    2    3    0
 -5  ALL         1    2    0    0    1ALL
 -1         5 0.00000E+00 0.00000E+00 0.00000E+00
 -1         6 0.00000E+00 0.00000E+00 0.00000E+00
 -1         7 0.00000E+00 0.00000E+00 0.00000E+00
 -1         8 0.00000E+00 0.00000E+00 0.00000E+00
 -1        21 0.00000E+00 0.00000E+00 0.00000E+00
 -1        22 0.00000E+00 0.00000E+00 0.00000E+00
 -1        23 0.00000E+00 0.00000E+00 0.00000E+00
 -1        24 0.00000E+00 0.00000E+00 0.00000E+00
 -1        25 0.00000E+00 0.00000E+00 0.00000E+00
 -1        26 0.00000E+00 0.00000E+00 0.00000E+00
 -1        27 0.00000E+00 0.00000E+00 0.00000E+00
 -1        28 0.00000E+00 0.00000E+00 0.00000E+00
 -1        29 0.00000E+00 0.00000E+00 0.00000E+00
 -1        30 0.00000E+00 0.00000E+00 0.00000E+00
 -1        31 0.00000E+00 0.00000E+00 0.00000E+00
 -1        32 0.00000E+00 0.00000E+00 0.00000E+00
 -1        44 1.95141E-04-6.33486E-04 1.17425E-04
 -1        45 5.64861E-05-5.49160E-04 1.47358E-04
 -1        46-4.87683E-05-4.05359E-04 1.77894E-04
 -1        47 3.15943E-05-1.75263E-04 1.16305E-04
 -1        48-3.15970E-05-1.75265E-04 1.16307E-04
 -1        49 4.87648E-05-4.05352E-04 1.77892E-04
 -1        50-5.64910E-05-5.49172E-04 1.47376E-04
 -1        51-1.95143E-04-6.33488E-04 1.17429E-04
 -1        74-1.94788E-04-6.33736E-04-1.17432E-04
 -1        75-5.63078E-05-5.49319E-04-1.47371E-04
 -1        76 4.86794E-05-4.05289E-04-1.77893E-04
 -1        77-3.16478E-05-1.75223E-04-1.16303E-04
 -1        89 1.94776E-04-6.33710E-04-1.17414E-04
 -1        90 5.63115E-05-5.49324E-04-1.47367E-04
 -1        91-4.86938E-05-4.05285E-04-1.77892E-04
 -1        92 3.16473E-05-1.75225E-04-1.16310E-04
 -1        98 0.00000E+00 0.00000E+00 0.00000E+00
 -1        99 0.00000E+00 0.00000E+00 0.00000E+00
 -1       100 0.00000E+00 0.00000E+00 0.00000E+00
 -1       101 0.00000E+00 0.00000E+00 0.00000E+00
 -1       102 0.00000E+00 0.00000E+00 0.00000E+00
 -1       124-1.35613E-05-7.07592E-04 1.08920E-04
 -1       125-1.32950E-08-8.88491E-04 1.13705E-04
 -1       126 1.35456E-05-7.07593E-04 1.08923E-04
 -1       127-7.63435E-10-6.15973E-04 2.05674E-04
 -1       128 2.96797E-06-4.12630E-04 2.06669E-04
 -1       129-3.34347E-09-3.82715E-04 2.19074E-04
 -1       130-2.97231E-06-4.12633E-04 2.06668E-04
 -1       131-7.26568E-10-1.67062E-04 1.08920E-04
 -1       153-1.39866E-04-8.35139E-04 4.86728E-05
 -1       154 9.52456E-08-8.84996E-04-2.48771E-09
 -1       155 1.39736E-04-8.35388E-04-4.86606E-05
 -1       156 4.15611E-09-6.74318E-04-1.56684E-08
 -1       157 2.93997E-05-3.53325E-04 8.01381E-05
 -1       158-1.81807E-08-3.40998E-04-4.89271E-09
 -1       159-2.93713E-05-3.53263E-04-8.01381E-05
 -1       160-5.65149E-09-1.17213E-04-3.88572E-09
 -1       182-1.32570E-05-7.07508E-04-1.08913E-04
 -1       183 1.42300E-08-8.88520E-04-1.13700E-04
 -1       184 1.32640E-05-7.07506E-04-1.08918E-04
 -1       185-7.43141E-09-6.15936E-04-2.05639E-04
 -1       186 2.90325E-06-4.12647E-04-2.06673E-04
 -1       187 1.81326E-09-3.82719E-04-2.19064E-04
 -1       188-2.90810E-06-4.12643E-04-2.06669E-04
 -1       189-1.80316E-09-1.67072E-04-1.08920E-04
 -1       211-1.39734E-04-8.35384E-04-4.86756E-05
 -1       212-8.01337E-08-8.85026E-04 2.76906E-09
 -1       213 1.39862E-04-8.35162E-04 4.86721E-05
 -1       214-1.94889E-08-6.74311E-04-1.48187E-08
 -1       215 2.93654E-05-3.53267E-04-8.01310E-05
 -1       216 2.08956E-08-3.41007E-04-4.17755E-09
 -1       217-2.93982E-05-3.53324E-04 8.01393E-05
 -1       218 2.75884E-09-1.17212E-04 3.63176E-10
 -1       250-1.40729E-08-8.95739E-04 4.63401E-05
 -1       251 5.32062E-08-5.53096E-04 9.02465E-09
 -1       252-1.48317E-08-8.02161E-04 9.38042E-09
 -1       253-6.30633E-08-5.53078E-04-1.45483E-08
 -1       254 1.88411E-09-8.95554E-04-4.63303E-05
 -1       255-5.60697E-10-6.37572E-04 8.57052E-10
 -1       256-4.55256E-09-3.51724E-04 9.69048E-05
 -1       257-1.42933E-08-4.19067E-04 2.66916E-10
 -1       258-5.55655E-09-3.52540E-04-1.81573E-09
 -1       259 1.01790E-08-4.19063E-04 4.77466E-09
 -1       260-2.24883E-09-3.51769E-04-9.69100E-05
 -1       261 2.65264E-10-1.51883E-04 2.41473E-10
 -3
    1PSTEP                         6           6           1          
  100CL  106 3.00000E-02          81                     1    6           1
 -4  DISP        4    1
 -5  D1          1    2    1    0
 -5  D2          1    2    2    0
 -5  D3          1    2    3    0
 -5  ALL         1    2    0    0    1ALL
 -1         5 0.00000E+00 0.00000E+00 0.00000E+00
 -1         6 0.00000E+00 0.00000E+00 0.00000E+00
 -1         7 0.00000E+00 0.00000E+00 0.00000E+00
 -1         8 0.00000E+00 0.00000E+00 0.00000E+00
 -1        21 0.00000E+00 0.00000E+00 0.00000E+00
 -1        22 0.00000E+00 0.00000E+00 0.00000E+00
 -1        23 0.00000E+00 0.00000E+00 0.00000E+00
 -1        24 0.00000E+00 0.00000E+00 0.00000E+00
 -1        25 0.00000E+00 0.00000E+00 0.00000E+00
 -1        26 0.00000E+00 0.00000E+00 0.00000E+00
 -1        27 0.00000E+00 0.00000E+00 0.00000E+00
 -1        28 0.00000E+00 0.00000E+00 0.00000E+00
 -1        29 0.00000E+00 0.00000E+00 0.00000E+00
 -1        30 0.00000E+00 0.00000E+00 0.00000E+00
 -1        31 0.00000E+00 0.00000E+00 0.00000E+00
 -1        32 0.00000E+00 0.00000E+00 0.00000E+00
 -1        44-1.41644E-04 4.59459E-04-8.52063E-05
 -1        45-4.09633E-05 3.98303E-04-1.06955E-04
 -1        46 3.53978E-05 2.94076E-04-1.29019E-04
 -1        47-2.29059E-05 1.27154E-04-8.43933E-05