    1C
    1UUSER                                                              
    1UDATE              18.july.2018                                    
    1UTIME              00:47:42                                        
    1UHOST                                                              
    1UPGM               CalculiX                                        
    1UVERSION           Version 2.13                             
    1UCOMPILETIME       jue jun 14 00:40:39 CEST 2018                    
    1UDIR                                                               
    1UDBN                                                               
    1UMAT    1EL                                                        
    2C                            81                                     1
 -1         5 0.00000E+00 0.00000E+00 8.00000E+00
 -1         6 1.00000E+00 0.00000E+00 8.00000E+00
 -1         7 1.00000E+00 1.00000E+00 8.00000E+00
 -1         8 0.00000E+00 1.00000E+00 8.00000E+00
 -1        21 2.50000E-01 0.00000E+00 8.00000E+00
 -1        22 5.00000E-01 0.00000E+00 8.00000E+00
 -1        23 7.50000E-01 0.00000E+00 8.00000E+00
 -1        24 1.00000E+00 2.50000E-01 8.00000E+00
 -1        25 1.00000E+00 5.00000E-01 8.00000E+00
 -1        26 1.00000E+00 7.50000E-01 8.00000E+00
 -1        27 7.50000E-01 1.00000E+00 8.00000E+00
 -1        28 5.00000E-01 1.00000E+00 8.00000E+00
 -1        29 2.50000E-01 1.00000E+00 8.00000E+00
 -1        30 0.00000E+00 7.50000E-01 8.00000E+00
 -1        31 0.00000E+00 5.00000E-01 8.00000E+00
 -1        32 0.00000E+00 2.50000E-01 8.00000E+00
 -1        44 1.00000E+00 0.00000E+00 6.00000E+00
 -1        45 1.00000E+00 0.00000E+00 6.50000E+00
 -1        46 1.00000E+00 0.00000E+00 7.00000E+00
 -1        47 1.00000E+00 0.00000E+00 7.50000E+00
 -1        48 0.00000E+00 0.00000E+00 7.50000E+00
 -1        49 0.00000E+00 0.00000E+00 7.00000E+00
 -1        50 0.00000E+00 0.00000E+00 6.50000E+00
 -1        51 0.00000E+00 0.00000E+00 6.00000E+00
 -1        74 1.00000E+00 1.00000E+00 6.00000E+00
 -1        75 1.00000E+00 1.00000E+00 6.50000E+00
 -1        76 1.00000E+00 1.00000E+00 7.00000E+00
 -1        77 1.00000E+00 1.00000E+00 7.50000E+00
 -1        89 0.00000E+00 1.00000E+00 6.00000E+00
 -1        90 0.00000E+00 1.00000E+00 6.50000E+00
 -1        91 0.00000E+00 1.00000E+00 7.00000E+00
 -1        92 0.00000E+00 1.00000E+00 7.50000E+00
 -1        98 5.00000E-01 2.50000E-01 8.00000E+00
 -1        99 2.50000E-01 5.00000E-01 8.00000E+00
 -1       100 5.00000E-01 5.00000E-01 8.00000E+00
 -1       101 7.50000E-01 5.00000E-01 8.00000E+00
 -1       102 5.00000E-01 7.50000E-01 8.00000E+00
 -1       124 2.50000E-01 0.00000E+00 6.00000E+00
 -1       125 5.00000E-01 0.00000E+00 6.00000E+00
 -1       126 7.50000E-01 0.00000E+00 6.00000E+00
 -1       127 5.00000E-01 0.00000E+00 6.50000E+00
 -1       128 2.50000E-01 0.00000E+00 7.00000E+00
 -1       129 5.00000E-01 0.00000E+00 7.00000E+00
 -1       130 7.50000E-01 0.00000E+00 7.00000E+00
 -1       131 5.00000E-01 0.00000E+00 7.50000E+00
 -1       153 1.00000E+00 2.50000E-01 6.00000E+00
 -1       154 1.00000E+00 5.00000E-01 6.00000E+00
 -1       155 1.00000E+00 7.50000E-01 6.00000E+00
 -1       156 1.00000E+00 5.00000E-01 6.50000E+00
 -1       157 1.00000E+00 2.50000E-01 7.00000E+00
 -1       158 1.00000E+00 5.00000E-01 7.00000E+00
 -1       159 1.00000E+00 7.50000E-01 7.00000E+00
 -1       160 1.00000E+00 5.00000E-01 7.50000E+00
 -1       182 7.50000E-01 1.00000E+00 6.00000E+00
 -1       183 5.00000E-01 1.00000E+00 6.00000E+00
 -1       184 2.50000E-01 1.00000E+00 6.00000E+00
 -1       185 5.00000E-01 1.00000E+00 6.50000E+00
 -1       186 7.50000E-01 1.00000E+00 7.00000E+00
 -1       187 5.00000E-01 1.00000E+00 7.00000E+00
 -1       188 2.50000E-01 1.00000E+00 7.00000E+00
 -1       189 5.00000E-01 1.00000E+00 7.50000E+00
 -1       211 0.00000E+00 7.50000E-01 6.00000E+00
 -1       212 0.00000E+00 5.00000E-01 6.00000E+00
 -1       213 0.00000E+00 2.50000E-01 6.00000E+00
 -1       214 0.00000E+00 5.00000E-01 6.50000E+00
 -1       215 0.00000E+00 7.50000E-01 7.00000E+00
 -1       216 0.00000E+00 5.00000E-01 7.00000E+00
 -1       217 0.00000E+00 2.50000E-01 7.00000E+00
 -1       218 0.00000E+00 5.00000E-01 7.50000E+00
 -1       250 5.00000E-01 2.50000E-01 6.00000E+00
 -1       251 2.50000E-01 5.00000E-01 6.00000E+00
 -1       252 5.00000E-01 5.00000E-01 6.00000E+00
 -1       253 7.50000E-01 5.00000E-01 6.00000E+00
 -1       254 5.00000E-01 7.50000E-01 6.00000E+00
 -1       255 5.00000E-01 5.00000E-01 6.50000E+00
 -1       256 5.00000E-01 2.50000E-01 7.00000E+00
 -1       257 2.50000E-01 5.00000E-01 7.00000E+00
 -1       258 5.00000E-01 5.00000E-01 7.00000E+00
 -1       259 7.50000E-01 5.00000E-01 7.00000E+00
 -1       260 5.00000E-01 7.50000E-01 7.00000E+00
 -1       261 5.00000E-01 5.00000E-01 7.50000E+00
 -3
    3C                             8                                     1
 -1        25    4    0    1
 -2        51       125       252       212        49       129       258       216       124       250
 -2       251       213        50       127       255       214       128       256       257       217
 -1        26    4    0    1
 -2       125        44       154       252       129        46       158       258       126       153
 -2       253       250       127        45       156       255       130       157       259       256
 -1        27    4    0    1
 -2       212       252       183        89       216       258       187        91       251       254
 -2       184       211       214       255       185        90       257       260       188       215
 -1        28    4    0    1
 -2       252       154        74       183       258       158        76       187       253       155
 -2       182       254       255       156        75       185       259       159       186       260
 -1        29    4    0    1
 -2        49       129       258       216         5        22       100        31       128       256
 -2       257       217        48       131       261       218        21        98        99        32
 -1        30    4    0    1
 -2       129        46       158       258        22         6        25       100       130       157
 -2       259       256       131        47       160       261        23        24       101        98
 -1        31    4    0    1
 -2       216       258       187        91        31       100        28         8       257       260
 -2       188       215       218       261       189        92        99       102        29        30
 -1        32    4    0    1
 -2       258       158        76       187       100        25         7        28       259       159
 -2       186       260       261       160        77       189       101        26        27       102
 -3
    1PSTEP                         1           1           1          
  100CL  101 5.00000E-03          81                     1    1           1
 -4  DISP        4    1
 -5  D1          1    2    1    0
 -5  D2          1    2    2    0
 -5  D3          1    2    3    0
 -5  ALL         1    2    0    0    1ALL
 -1         5 0.00000E+00 0.00000E+00 0.00000E+00
 -1         6 0.00000E+00 0.00000E+00 0.00000E+00
 -1         7 0.00000E+00 0.00000E+00 0.00000E+00
 -1         8 0.00000E+00 0.00000E+00 0.00000E+00
 -1        21 0.00000E+00 0.00000E+00 0.00000E+00
 -1        22 0.00000E+00 0.00000E+00 0.00000E+00
 -1        23 0.00000E+00 0.00000E+00 0.00000E+00
 -1        24 0.00000E+00 0.00000E+00 0.00000E+00
 -1        25 0.00000E+00 0.00000E+00 0.00000E+00
 -1        26 0.00000E+00 0.00000E+00 0.00000E+00
 -1        27 0.00000E+00 0.00000E+00 0.00000E+00
 -1        28 0.00000E+00 0.00000E+00 0.00000E+00
 -1        29 0.00000E+00 0.00000E+00 0.00000E+00
 -1        30 0.00000E+00 0.00000E+00 0.00000E+00
 -1        31 0.00000E+00 0.00000E+00 0.00000E+00
 -1        32 0.00000E+00 0.00000E+00 0.00000E+00
 -1        44 6.82372E-04-2.79579E-03 4.78519E-04
 -1        45 3.28879E-04-2.30098E-03 6.58437E-04
 -1        46-2.20845E-04-1.76342E-03 8.53881E-04
 -1        47 1.24809E-04-7.03745E-04 4.61071E-04
 -1        48-1.24845E-04-7.03788E-04 4.61136E-04
 -1        49 2.20658E-04-1.76348E-03 8.54050E-04
 -1        50-3.29241E-04-2.30100E-03 6.58726E-04
 -1        51-6.83216E-04-2.79591E-03 4.79038E-04
 -1        74-2.58225E-04-3.95436E-03-5.36833E-04
 -1        75 1.63270E-05-2.82938E-03-6.71065E-04
 -1        76 2.62423E-05-1.50970E-03-8.65953E-04
 -1        77-2.23360E-04-5.28391E-04-4.70371E-04
 -1        89 2.57381E-04-3.95424E-03-5.36315E-04
 -1        90-1.66895E-05-2.82936E-03-6.70776E-04
 -1        91-2.64296E-05-1.50965E-03-8.65785E-04
 -1        92 2.23324E-04-5.28349E-04-4.70306E-04
 -1        98 0.00000E+00 0.00000E+00 0.00000E+00
 -1        99 0.00000E+00 0.00000E+00 0.00000E+00
 -1       100 0.00000E+00 0.00000E+00 0.00000E+00
 -1       101 0.00000E+00 0.00000E+00 0.00000E+00
 -1       102 0.00000E+00 0.00000E+00 0.00000E+00
 -1       124-6.45779E-05-3.14598E-03 4.45896E-04
 -1       125-3.30899E-07-3.87624E-03 4.73452E-04
 -1       126 6.38505E-05-3.14593E-03 4.45716E-04
 -1       127-2.04403E-07-2.57599E-03 9.45402E-04
 -1       128 3.47947E-05-1.80122E-03 9.13538E-04
 -1       129-6.09211E-08-1.69849E-03 9.45963E-04
 -1       130-3.49465E-05-1.80119E-03 9.13435E-04
 -1       131-8.89959E-09-6.85615E-04 4.66636E-04
 -1       153-3.57499E-04-3.24349E-03 1.79470E-04
 -1       154-8.54124E-05-2.91693E-03-3.15294E-05
 -1       155 3.08814E-04-3.63101E-03-2.40114E-04
 -1       156-1.20947E-04-2.88876E-03-7.94880E-05
 -1       157 7.75329E-05-1.46289E-03 3.70926E-04
 -1       158 8.90963E-05-1.37475E-03-2.89076E-05
 -1       159-3.26174E-05-1.39529E-03-3.90504E-04
 -1       160 3.88001E-05-5.33791E-04 1.33972E-06
 -1       182 2.57179E-05-2.66672E-03-4.97336E-04
 -1       183-3.31073E-07-4.74869E-03-5.02912E-04
 -1       184-2.64458E-05-2.66668E-03-4.97157E-04
 -1       185-2.04545E-07-2.85660E-03-9.18475E-04
 -1       186-2.23935E-05-2.02769E-03-9.64306E-04
 -1       187-6.09093E-08-1.70179E-03-9.81668E-04
 -1       188 2.22416E-05-2.02766E-03-9.64203E-04
 -1       189-8.93112E-09-6.58619E-04-4.68231E-04
 -1       211-3.09693E-04-3.63096E-03-2.39661E-04
 -1       212 8.45415E-05-2.91693E-03-3.10779E-05
 -1       213 3.56620E-04-3.24354E-03 1.79922E-04
 -1       214 1.20565E-04-2.88876E-03-7.92048E-05
 -1       215 3.24189E-05-1.39527E-03-3.90324E-04
 -1       216-8.93003E-05-1.37475E-03-2.87338E-05
 -1       217-7.77313E-05-1.46292E-03 3.71106E-04
 -1       218-3.88571E-05-5.33791E-04 1.39884E-06
 -1       250-3.45286E-07-4.09434E-03 1.60558E-04
 -1       251 5.22271E-05-2.51043E-03-2.25727E-05
 -1       252-3.54271E-07-3.45881E-03-2.05283E-05
 -1       253-5.29975E-05-2.51043E-03-2.27136E-05
 -1       254-3.45265E-07-4.43014E-03-2.47585E-04
 -1       255-2.14265E-07-2.63191E-03-3.50688E-05
 -1       256-6.76521E-08-1.53764E-03 3.88406E-04
 -1       257-5.06001E-05-1.67663E-03-9.71795E-06
 -1       258-6.95618E-08-1.62535E-03-1.71670E-05
 -1       259 5.04327E-05-1.67663E-03-9.82362E-06
 -1       260-6.76688E-08-1.55848E-03-4.24335E-04
 -1       261-1.92738E-08-6.58545E-04-3.57317E-06
 -3
    1PSTEP                         2           2           1          
  100CL  102 1.00000E-02          81                     1    2           1
 -4  DISP        4    1
 -5  D1          1    2    1    0
 -5  D2          1    2    2    0
 -5  D3          1    2    3    0
 -5  ALL         1    2    0    0    1ALL
 -1         5 0.00000E+00 0.00000E+00 0.00000E+00
 -1         6 0.00000E+00 0.00000E+00 0.00000E+00
 -1         7 0.00000E+00 0.00000E+00 0.00000E+00
 -1         8 0.00000E+00 0.00000E+00 0.00000E+00
 -1        21 0.00000E+00 0.00000E+00 0.00000E+00
 -1        22 0.00000E+00 0.00000E+00 0.00000E+00
 -1        23 0.00000E+00 0.00000E+00 0.00000E+00
 -1        24 0.00000E+00 0.00000E+00 0.00000E+00
 -1        25 0.00000E+00 0.00000E+00 0.00000E+00
 -1        26 0.00000E+00 0.00000E+00 0.00000E+00
 -1        27 0.00000E+00 0.00000E+00 0.00000E+00
 -1        28 0.00000E+00 0.00000E+00 0.00000E+00
 -1        29 0.00000E+00 0.00000E+00 0.00000E+00
 -1        30 0.00000E+00 0.00000E+00 0.00000E+00
 -1        31 0.00000E+00 0.00000E+00 0.00000E+00
 -1        32 0.00000E+00 0.00000E+00 0.00000E+00
 -1        44-4.18373E-04 1.36725E-03-2.52950E-04
 -1        45-1.21512E-04 1.18365E-03-3.17804E-04
 -1        46 1.04805E-04 8.73127E-04-3.83794E-04
 -1        47-6.81891E-05 3.77117E-04-2.50396E-04
 -1        48 6.81917E-05 3.77114E-04-2.50394E-04
 -1        49-1.04793E-04 8.73124E-04-3.83801E-04
 -1        50 1.21505E-04 1.18367E-03-3.17826E-04
 -1        51 4.18354E-04 1.36733E-03-2.52951E-04
 -1        74 4.16203E-04 1.37292E-03 2.53230E-04
 -1        75 1.19798E-04 1.18623E-03 3.17895E-04
 -1        76-1.03771E-04 8.71842E-04 3.83868E-04
 -1        77 6.86848E-05 3.76261E-04 2.50439E-04
 -1        89-4.16198E-04 1.37286E-03 2.53221E-04
 -1        90-1.19818E-04 1.18622E-03 3.17881E-04
 -1        91 1.03793E-04 8.71845E-04 3.83863E-04
 -1        92-6.86835E-05 3.76265E-04 2.50446E-04
 -1        98 0.00000E+00 0.00000E+00 0.00000E+00
 -1        99 0.00000E+00 0.00000E+00 0.00000E+00
 -1       100 0.00000E+00 0.00000E+00 0.00000E+00
 -1       101 0.00000E+00 0.00000E+00 0.00000E+00
 -1       102 0.00000E+00 0.00000E+00 0.00000E+00
 -1       124 2.85412E-05 1.52467E-03-2.34635E-04
 -1       125-6.72091E-09 1.91510E-03-2.44956E-04
 -1       126-2.85516E-05 1.52466E-03-2.34630E-04
 -1       127-1.28624E-09 1.32701E-03-4.43311E-04
 -1       128-6.34995E-06 8.89286E-04-4.45458E-04
 -1       129 5.29119E-10 8.24625E-04-4.72024E-04
 -1       130 6.35463E-06 8.89282E-04-4.45455E-04
 -1       131 2.41743E-09 3.59707E-04-2.34668E-04
 -1       153 2.99638E-04 1.79886E-03-1.04768E-04
 -1       154 3.46721E-07 1.90236E-03 1.72152E-07
 -1       155-2.99372E-04 1.80033E-03 1.05061E-04
 -1       156 5.78491E-07 1.45260E-03 3.84571E-07
 -1       157-6.30188E-05 7.60828E-04-1.72796E-04
 -1       158-4.43812E-07 7.34401E-04 1.39680E-07
 -1       159 6.27826E-05 7.60575E-04 1.72900E-04
 -1       160-1.80522E-07 2.52720E-04 2.11915E-10
 -1       182 2.85161E-05 1.52239E-03 2.34909E-04
 -1       183-2.52379E-08 1.91932E-03 2.45131E-04
 -1       184-2.85343E-05 1.52239E-03 2.34925E-04
 -1       185 6.96280E-09 1.32833E-03 4.43188E-04
 -1       186-6.14840E-06 8.90401E-04 4.45707E-04
 -1       187-5.80937E-09 8.24737E-04 4.72199E-04
 -1       188 6.15169E-06 8.90395E-04 4.45699E-04
 -1       189 3.22987E-09 3.59591E-04 2.34673E-04
 -1       211 2.99383E-04 1.80029E-03 1.05061E-04
 -1       212-3.68980E-07 1.90237E-03 1.51422E-07
 -1       213-2.99637E-04 1.79893E-03-1.04771E-04
 -1       214-5.61487E-07 1.45260E-03 3.91076E-07
 -1       215-6.27803E-05 7.60583E-04 1.72897E-04
 -1       216 4.35690E-07 7.34402E-04 1.43698E-07
 -1       217 6.30161E-05 7.60821E-04-1.72799E-04
 -1       218 1.84825E-07 2.52720E-04-6.70795E-09
 -1       250 1.22761E-08 1.93059E-03-9.96936E-05
 -1       251 8.88078E-09 1.19270E-03 1.03203E-07
 -1       252 3.65293E-08 1.72786E-03 1.03407E-07
 -1       253 1.83168E-08 1.19269E-03 1.31751E-07
 -1       254-2.91433E-10 1.93266E-03 1.00117E-04
 -1       255 1.51296E-09 1.37315E-03 1.77149E-07
 -1       256 4.80603E-09 7.57921E-04-2.08673E-04
 -1       257 2.01634E-07 9.02175E-04 5.28298E-08
 -1       258 7.50049E-09 7.60060E-04 8.64555E-08
 -1       259-1.97765E-07 9.02174E-04 4.68706E-08
 -1       260 2.23163E-09 7.57970E-04 2.08857E-04
 -1       261-2.63729E-09 3.27266E-04 1.45294E-08
 -3
    1PSTEP                         3           3           1          
  100CL  103 1.50000E-02          81                     1    3           1
 -4  DISP        4    1
 -5  D1          1    2    1    0
 -5  D2          1    2    2    0
 -5  D3          1    2    3    0
 -5  ALL         1    2    0    0    1ALL
 -1         5 0.00000E+00 0.00000E+00 0.00000E+00
 -1         6 0.00000E+00 0.00000E+00 0.00000E+00
 -1         7 0.00000E+00 0.00000E+00 0.00000E+00
 -1         8 0.00000E+00 0.00000E+00 0.00000E+00
 -1        21 0.00000E+00 0.00000E+00 0.00000E+00
 -1        22 0.00000E+00 0.00000E+00 0.00000E+00
 -1        23 0.00000E+00 0.00000E+00 0.00000E+00
 -1        24 0.00000E+00 0.00000E+00 0.00000E+00
 -1        25 0.00000E+00 0.00000E+00 0.00000E+00
 -1        26 0.00000E+00 0.00000E+00 0.00000E+00
 -1        27 0.00000E+00 0.00000E+00 0.00000E+00
 -1        28 0.00000E+00 0.00000E+00 0.00000E+00
 -1        29 0.00000E+00 0.00000E+00 0.00000E+00
 -1        30 0.00000E+00 0.00000E+00 0.00000E+00
 -1        31 0.00000E+00 0.00000E+00 0.00000E+00
 -1        32 0.00000E+00 0.00000E+00 0.00000E+00
 -1        44 3.31637E-04-1.08300E-03 2.00458E-04
 -1        45 9.57634E-05-9.37916E-04 2.51692E-04
 -1        46-8.29088E-05-6.91545E-04 3.03649E-04
 -1        47 5.41048E-05-2.98915E-04 1.98507E-04
 -1        48-5.40919E-05-2.98900E-04 1.98479E-04
 -1        49 8.29354E-05-6.91534E-04 3.03613E-04
 -1        50-9.56471E-05-9.37914E-04 2.51639E-04
 -1        51-3.31471E-04-1.08305E-03 2.00382E-04
 -1        74-3.32632E-04-1.08249E-03-2.00398E-04
 -1        75-9.61882E-05-9.37542E-04-2.51606E-04
 -1        76 8.31325E-05-6.91633E-04-3.03597E-04
 -1        77-5.39389E-05-2.98987E-04-1.98485E-04
 -1        89 3.32806E-04-1.08243E-03-2.00460E-04
 -1        90 9.63046E-05-9.37528E-04-2.51644E-04
 -1        91-8.30928E-05-6.91641E-04-3.03634E-04
 -1        92 5.39524E-05-2.98998E-04-1.98507E-04
 -1        98 0.00000E+00 0.00000E+00 0.00000E+00
 -1        99 0.00000E+00 0.00000E+00 0.00000E+00
 -1       100 0.00000E+00 0.00000E+00 0.00000E+00
 -1       101 0.00000E+00 0.00000E+00 0.00000E+00
 -1       102 0.00000E+00 0.00000E+00 0.00000E+00
 -1       124-2.18946E-05-1.20717E-03 1.85888E-04
 -1       125 1.08172E-07-1.51659E-03 1.94099E-04
 -1       126 2.20786E-05-1.20718E-03 1.85939E-04
 -1       127 3.94435E-08-1.05139E-03 3.50793E-04
 -1       128 4.86083E-06-7.04308E-04 3.52705E-04
 -1       129 2.89058E-08-6.52927E-04 3.73814E-04
 -1       130-4.81810E-06-7.04305E-04 3.52721E-04
 -1       131 1.17763E-09-2.85078E-04 1.85878E-04
 -1       153-2.38063E-04-1.42679E-03 8.31049E-05
 -1       154-3.20995E-07-1.51022E-03 2.18463E-08
 -1       155 2.38676E-04-1.42556E-03-8.30631E-05
 -1       156-5.18478E-08-1.15042E-03 5.44676E-08
 -1       157 5.00760E-05-6.02877E-04 1.36754E-04
 -1       158 1.49012E-07-5.82290E-04 2.45157E-08
 -1       159-5.01284E-05-6.03150E-04-1.36730E-04
 -1       160 4.28325E-08-2.00137E-04 1.36508E-08
 -1       182-2.33987E-05-1.20724E-03-1.85887E-04
 -1       183 8.81315E-08-1.51669E-03-1.94086E-04
 -1       184 2.35672E-05-1.20724E-03-1.85923E-04
 -1       185 4.99802E-08-1.05161E-03-3.50887E-04
 -1       186 5.16889E-06-7.04318E-04-3.52701E-04
 -1       187 2.62863E-08-6.52930E-04-3.73850E-04
 -1       188-5.12197E-06-7.04316E-04-3.52717E-04
 -1       189 3.31009E-09-2.85030E-04-1.85875E-04
 -1       211-2.38546E-04-1.42550E-03-8.31033E-05
 -1       212 4.50415E-07-1.51020E-03 1.11301E-08
 -1       213 2.38195E-04-1.42682E-03 8.30415E-05
 -1       214 1.59637E-07-1.15042E-03-2.82026E-09
 -1       215 5.01767E-05-6.03155E-04-1.36771E-04
 -1       216-1.04004E-07-5.82283E-04-2.32651E-08
 -1       217-5.00354E-05-6.02863E-04 1.36716E-04
 -1       218-2.51566E-08-2.00136E-04-7.30178E-09
 -1       250 9.38717E-08-1.52729E-03 7.90891E-05
 -1       251-3.37990E-07-9.44363E-04-2.42813E-09
 -1       252 6.47242E-08-1.36786E-03 7.02537E-10
 -1       253 4.71154E-07-9.44378E-04 2.74332E-08
 -1       254 8.05006E-08-1.52847E-03-7.91165E-05
 -1       255 4.19680E-08-1.08798E-03-1.05965E-08
 -1       256 2.62346E-08-6.00377E-04 1.65407E-04
 -1       257 8.91484E-08-7.15086E-04-1.85466E-08
 -1       258 2.56186E-08-6.01676E-04-2.28188E-09
 -1       259-4.31255E-08-7.15089E-04-8.62698E-10
 -1       260 2.55679E-08-6.00133E-04-1.65392E-04
 -1       261 8.27188E-09-2.59271E-04-4.20243E-09
 -3
    1PSTEP                         4           4           1          
  100CL  104 2.00000E-02          81                     1    4           1
 -4  DISP        4    1
 -5  D1          1    2    1    0
 -5  D2          1    2    2    0
 -5  D3          1    2    3    0
 -5  ALL         1    2    0    0    1ALL
 -1         5 0.00000E+00 0.00000E+00 0.00000E+00
 -1         6 0.00000E+00 0.00000E+00 0.00000E+00
 -1         7 0.00000E+00 0.00000E+00 0.00000E+00
 -1         8 0.00000E+00 0.00000E+00 0.00000E+00
 -1        21 0.00000E+00 0.00000E+00 0.00000E+00
 -1        22 0.00000E+00 0.00000E+00 0.00000E+00
 -1        23 0.00000E+00 0.00000E+00 0.00000E+00
 -1        24 0.00000E+00 0.00000E+00 0.00000E+00
 -1        25 0.00000E+00 0.00000E+00 0.00000E+00
 -1        26 0.00000E+00 0.00000E+00 0.00000E+00
 -1        27 0.00000E+00 0.00000E+00 0.00000E+00
 -1        28 0.00000E+00 0.00000E+00 0.00000E+00
 -1        29 0.00000E+00 0.00000E+00 0.00000E+00
 -1        30 0.00000E+00 0.00000E+00 0.00000E+00
 -1        31 0.00000E+00 0.00000E+00 0.00000E+00
 -1        32 0.00000E+00 0.00000E+00 0.00000E+00
 -1        44-2.57013E-04 8.41276E-04-1.55620E-04
 -1        45-7.40946E-05 7.28379E-04-1.95373E-04
 -1        46 6.41970E-05 5.36601E-04-2.35737E-04
 -1        47-4.20576E-05 2.31932E-04-1.54080E-04
 -1        48 4.20668E-05 2.31935E-04-1.54089E-04
 -1        49-6.41858E-05 5.36601E-04-2.35743E-04
 -1        50 7.41368E-05 7.28376E-04-1.95392E-04
 -1        51 2.56984E-04 8.41314E-04-1.55609E-04
 -1        74 2.58263E-04 8.40421E-04 1.55640E-04
 -1        75 7.47925E-05 7.27795E-04 1.95381E-04
 -1        76-6.45708E-05 5.36945E-04 2.35740E-04
 -1        77 4.18687E-05 2.32096E-04 1.54087E-04
 -1        89-2.58229E-04 8.40388E-04 1.55623E-04
 -1        90-7.47633E-05 7.27796E-04 1.95368E-04
 -1        91 6.45958E-05 5.36942E-04 2.35723E-04
 -1        92-4.18623E-05 2.32096E-04 1.54081E-04
 -1        98 0.00000E+00 0.00000E+00 0.00000E+00
 -1        99 0.00000E+00 0.00000E+00 0.00000E+00
 -1       100 0.00000E+00 0.00000E+00 0.00000E+00
 -1       101 0.00000E+00 0.00000E+00 0.00000E+00
 -1       102 0.00000E+00 0.00000E+00 0.00000E+00
 -1       124 1.74800E-05 9.36957E-04-1.44362E-04
 -1       125 2.55650E-08 1.17766E-03-1.50676E-04
 -1       126-1.74638E-05 9.36933E-04-1.44342E-04
 -1       127 4.98896E-09 8.16200E-04-2.72309E-04
 -1       128-3.79652E-06 5.46808E-04-2.73835E-04
 -1       129 1.81695E-08 5.06893E-04-2.90208E-04
 -1       130 3.81916E-06 5.46808E-04-2.73838E-04
 -1       131 2.97670E-09 2.21275E-04-1.44299E-04
 -1       153 1.84660E-04 1.10714E-03-6.45228E-05
 -1       154 3.26356E-07 1.17206E-03-3.96849E-09
 -1       155-1.85162E-04 1.10697E-03 6.45153E-05
 -1       156 6.22452E-08 8.93047E-04-6.27973E-08
 -1       157-3.88111E-05 4.68012E-04-1.06155E-04
 -1       158-3.56842E-08 4.51990E-04-2.05425E-09
 -1       159 3.89363E-05 4.68116E-04 1.06192E-04
 -1       160-1.40040E-08 1.55371E-04 1.14342E-09
 -1       182 1.78347E-05 9.37247E-04 1.44372E-04
 -1       183 1.15061E-08 1.17747E-03 1.50694E-04
 -1       184-1.78056E-05 9.37236E-04 1.44345E-04
 -1       185 1.14502E-08 8.16349E-04 2.72448E-04
 -1       186-3.91904E-06 5.46749E-04 2.73824E-04
 -1       187 1.03202E-08 5.06821E-04 2.90237E-04
 -1       188 3.94139E-06 5.46746E-04 2.73820E-04
 -1       189 3.89603E-09 2.21248E-04 1.44308E-04
 -1       211 1.85159E-04 1.10695E-03 6.45199E-05
 -1       212-3.72998E-07 1.17208E-03 3.33640E-08
 -1       213-1.84696E-04 1.10717E-03-6.44728E-05
 -1       214-1.07648E-08 8.93052E-04-6.26723E-08
 -1       215-3.89244E-05 4.68117E-04 1.06179E-04
 -1       216 3.63037E-08 4.51990E-04-1.22347E-08
 -1       217 3.88162E-05 4.68010E-04-1.06169E-04
 -1       218 2.57774E-08 1.55370E-04-1.31316E-08
 -1       250 3.54674E-08 1.18633E-03-6.14537E-05
 -1       251-1.12265E-07 7.33205E-04 9.01931E-09
 -1       252 4.07631E-08 1.06192E-03-1.32116E-08
 -1       253 1.38426E-07 7.33200E-04 3.88214E-08
 -1       254 2.60709E-08 1.18628E-03 6.14090E-05
 -1       255 6.15236E-09 8.44545E-04 4.06743E-09
 -1       256 1.83323E-08 4.65988E-04-1.28400E-04
 -1       257 1.85087E-08 5.55068E-04 8.43710E-09
 -1       258 1.89650E-08 4.67113E-04 1.84002E-09
 -1       259-2.09971E-10 5.55068E-04 2.18653E-09
 -1       260 1.46419E-08 4.65945E-04 1.28392E-04
 -1       261 1.86058E-09 2.01269E-04 2.31093E-09
 -3
    1PSTEP                         5           5           1          
  100CL  105 2.50000E-02          81                     1    5           1
 -4  DISP        4    1
 -5  D1          1    2    1    0
 -5  D2          1    2    2    0
 -5  D3          1    2    3    0
 -5  ALL         1    2    0    0    1ALL
 -1         5 0.00000E+00 0.00000E+00 0.00000E+00
 -1         6 0.00000E+00 0.00000E+00 0.00000E+00
 -1         7 0.00000E+00 0.00000E+00 0.00000E+00
 -1         8 0.00000E+00 0.00000E+00 0.00000E+00
 -1        21 0.00000E+00 0.00000E+00 0.00000E+00
 -1        22 0.00000E+00 0.00000E+00 0.00000E+00
 -1        23 0.00000E+00 0.00000E+00 0.00000E+00
 -1        24 0.00000E+00 0.00000E+00 0.00000E+00
 -1        25 0.00000E+00 0.00000E+00 0.00000E+00
 -1        26 0.00000E+00 0.00000E+00 0.00000E+00
 -1        27 0.00000E+00 0.00000E+00 0.00000E+00
 -1        28 0.00000E+00 0.00000E+00 0.00000E+00
 -1        29 0.00000E+00 0.00000E+00 0.00000E+00
 -1        30 0.00000E+00 0.00000E+00 0.00000E+00
 -1        31 0.00000E+00 0.00000E+00 0.00000E+00
 -1        32 0.00000E+00 0.00000E+00 0.00000E+00
 -1        44 1.95537E-04-6.33697E-04 1.17480E-04
 -1        45 5.65869E-05-5.49141E-04 1.47448E-04
 -1        46-4.87032E-05-4.05238E-04 1.77835E-04
 -1        47 3.15584E-05-1.75281E-04 1.16330E-04
 -1        48-3.15578E-05-1.75274E-04 1.16323E-04
 -1        49 4.87109E-05-4.05227E-04 1.77833E-04
 -1        50-5.65561E-05-5.49156E-04 1.47458E-04
 -1        51-1.95410E-04-6.33818E-04 1.17447E-04
 -1        74-1.94453E-04-6.34835E-04-1.17396E-04
 -1        75-5.60184E-05-5.49723E-04-1.47402E-04
 -1        76 4.87140E-05-4.05201E-04-1.77823E-04
 -1        77-3.16875E-05-1.75130E-04-1.16324E-04
 -1        89 1.94520E-04-6.34790E-04-1.17439E-04
 -1        90 5.60863E-05-5.49702E-04-1.47404E-04
 -1        91-4.87210E-05-4.05213E-04-1.77840E-04
 -1        92 3.16905E-05-1.75136E-04-1.16344E-04
 -1        98 0.00000E+00 0.00000E+00 0.00000E+00
 -1        99 0.00000E+00 0.00000E+00 0.00000E+00
 -1       100 0.00000E+00 0.00000E+00 0.00000E+00
 -1       101 0.00000E+00 0.00000E+00 0.00000E+00
 -1       102 0.00000E+00 0.00000E+00 0.00000E+00
 -1       124-1.46933E-05-7.07527E-04 1.08953E-04
 -1       125 3.35062E-08-8.88537E-04 1.13753E-04
 -1       126 1.47748E-05-7.07496E-04 1.08923E-04
 -1       127 2.43955E-08-6.16221E-04 2.05628E-04
 -1       128 3.19290E-06-4.12588E-04 2.06632E-04
 -1       129 3.53250E-09-3.82577E-04 2.19052E-04
 -1       130-3.18194E-06-4.12586E-04 2.06642E-04
 -1       131-1.48774E-09-1.67002E-04 1.08893E-04
 -1       153-1.40073E-04-8.34471E-04 4.86882E-05
 -1       154 1.32329E-07-8.85422E-04-1.39667E-08
 -1       155 1.39828E-04-8.37306E-04-4.86544E-05
 -1       156-7.36450E-10-6.74027E-04-4.86830E-08
 -1       157 2.94761E-05-3.53639E-04 8.01087E-05
 -1       158-8.30121E-08-3.41292E-04-1.35095E-10
 -1       159-2.93963E-05-3.53093E-04-8.00789E-05
 -1       160 1.64800E-08-1.17248E-04 1.40951E-08
 -1       182-1.19177E-05-7.07072E-04-1.08896E-04
 -1       183 6.30906E-08-8.88954E-04-1.13688E-04
 -1       184 1.20029E-05-7.07104E-04-1.08971E-04
 -1       185 2.40763E-09-6.16295E-04-2.05504E-04
 -1       186 2.66896E-06-4.12668E-04-2.06645E-04
 -1       187 2.03105E-08-3.82326E-04-2.19037E-04
 -1       188-2.64931E-06-4.12663E-04-2.06643E-04
 -1       189-2.08917E-09-1.66997E-04-1.08917E-04
 -1       211-1.39817E-04-8.37261E-04-4.86794E-05
 -1       212-1.17587E-07-8.85445E-04 6.17281E-08
 -1       213 1.40118E-04-8.34571E-04 4.86824E-05
 -1       214 3.14400E-08-6.74024E-04-6.55427E-08
 -1       215 2.94064E-05-3.53104E-04-8.00908E-05
 -1       216 9.65887E-08-3.41288E-04-2.31773E-08
 -1       217-2.94593E-05-3.53625E-04 8.01033E-05
 -1       218-1.24514E-08-1.17247E-04 9.48930E-09
 -1       250 1.50322E-08-8.96210E-04 4.63507E-05
 -1       251 1.19097E-06-5.53368E-04 4.01784E-08
 -1       252-9.51717E-09-8.01285E-04 6.77089E-09
 -1       253-1.18760E-06-5.53357E-04 1.26686E-08
 -1       254 3.77433E-08-8.93890E-04-4.63353E-05
 -1       255 9.52499E-09-6.37498E-04-4.44158E-09
 -1       256 3.71907E-09-3.51448E-04 9.69252E-05
 -1       257-2.25892E-07-4.19063E-04 1.78624E-09
 -1       258 5.09762E-09-3.52508E-04 1.48292E-09
 -1       259 2.35780E-07-4.19065E-04 1.02722E-08
 -1       260 1.03116E-08-3.51880E-04-9.69350E-05
 -1       261 5.26315E-09-1.51931E-04-7.60571E-11
 -3
    1PSTEP                         6           6           1          
  100CL  106 3.00000E-02          81                     1    6           1
 -4  DISP        4    1
 -5  D1          1    2    1    0
 -5  D2          1    2    2    0
 -5  D3          1    2    3    0
 -5  ALL         1    2    0    0    1ALL
 -1         5 0.00000E+00 0.00000E+00 0.00000E+00
 -1         6 0.00000E+00 0.00000E+00 0.00000E+00
 -1         7 0.00000E+00 0.00000E+00 0.00000E+00
 -1         8 0.00000E+00 0.00000E+00 0.00000E+00
 -1        21 0.00000E+00 0.00000E+00 0.00000E+00
 -1        22 0.00000E+00 0.00000E+00 0.00000E+00
 -1        23 0.00000E+00 0.00000E+00 0.00000E+00
 -1        24 0.00000E+00 0.00000E+00 0.00000E+00
 -1        25 0.00000E+00 0.00000E+00 0.00000E+00
 -1        26 0.00000E+00 0.00000E+00 0.00000E+00
 -1        27 0.00000E+00 0.00000E+00 0.00000E+00
 -1        28 0.00000E+00 0.00000E+00 0.00000E+00
 -1        29 0.00000E+00 0.00000E+00 0.00000E+00
 -1        30 0.00000E+00 0.00000E+00 0.00000E+00
 -1        31 0.00000E+00 0.00000E+00 0.00000E+00
 -1        32 0.00000E+00 0.00000E+00 0.00000E+00
 -1        44-1.40521E-04 4.60434E-04-8.51684E-05
 -1        45-4.05189E-05 3.98673E-04-1.06968E-04
 -1        46 3.52511E-05 2.93947E-04-1.29078E-04
 -1        47-2.30285E-05 1.26988E-04-8.43495E-05