    1C
    1UUSER                                                              
    1UDATE              18.july.2018                                    
    1UTIME              00:43:29                                        
    1UHOST                                                              
    1UPGM               CalculiX                                        
    1UVERSION           Version 2.13                             
    1UCOMPILETIME       jue jun 14 00:40:39 CEST 2018                    
    1UDIR                                                               
    1UDBN                                                               
    1UMAT    1EL                                                        
    2C                           201                                     1
 -1         1 0.00000E+00 0.00000E+00 0.00000E+00
 -1         2 1.00000E+00 0.00000E+00 0.00000E+00
 -1         3 1.00000E+00 1.00000E+00 0.00000E+00
 -1         4 0.00000E+00 1.00000E+00 0.00000E+00
 -1         9 2.50000E-01 0.00000E+00 0.00000E+00
 -1        10 5.00000E-01 0.00000E+00 0.00000E+00
 -1        11 7.50000E-01 0.00000E+00 0.00000E+00
 -1        12 1.00000E+00 2.50000E-01 0.00000E+00
 -1        13 1.00000E+00 5.00000E-01 0.00000E+00
 -1        14 1.00000E+00 7.50000E-01 0.00000E+00
 -1        15 7.50000E-01 1.00000E+00 0.00000E+00
 -1        16 5.00000E-01 1.00000E+00 0.00000E+00
 -1        17 2.50000E-01 1.00000E+00 0.00000E+00
 -1        18 0.00000E+00 7.50000E-01 0.00000E+00
 -1        19 0.00000E+00 5.00000E-01 0.00000E+00
 -1        20 0.00000E+00 2.50000E-01 0.00000E+00
 -1        33 1.00000E+00 0.00000E+00 5.00000E-01
 -1        34 1.00000E+00 0.00000E+00 1.00000E+00
 -1        35 1.00000E+00 0.00000E+00 1.50000E+00
 -1        36 1.00000E+00 0.00000E+00 2.00000E+00
 -1        37 1.00000E+00 0.00000E+00 2.50000E+00
 -1        38 1.00000E+00 0.00000E+00 3.00000E+00
 -1        39 1.00000E+00 0.00000E+00 3.50000E+00
 -1        40 1.00000E+00 0.00000E+00 4.00000E+00
 -1        41 1.00000E+00 0.00000E+00 4.50000E+00
 -1        42 1.00000E+00 0.00000E+00 5.00000E+00
 -1        43 1.00000E+00 0.00000E+00 5.50000E+00
 -1        44 1.00000E+00 0.00000E+00 6.00000E+00
 -1        51 0.00000E+00 0.00000E+00 6.00000E+00
 -1        52 0.00000E+00 0.00000E+00 5.50000E+00
 -1        53 0.00000E+00 0.00000E+00 5.00000E+00
 -1        54 0.00000E+00 0.00000E+00 4.50000E+00
 -1        55 0.00000E+00 0.00000E+00 4.00000E+00
 -1        56 0.00000E+00 0.00000E+00 3.50000E+00
 -1        57 0.00000E+00 0.00000E+00 3.00000E+00
 -1        58 0.00000E+00 0.00000E+00 2.50000E+00
 -1        59 0.00000E+00 0.00000E+00 2.00000E+00
 -1        60 0.00000E+00 0.00000E+00 1.50000E+00
 -1        61 0.00000E+00 0.00000E+00 1.00000E+00
 -1        62 0.00000E+00 0.00000E+00 5.00000E-01
 -1        63 1.00000E+00 1.00000E+00 5.00000E-01
 -1        64 1.00000E+00 1.00000E+00 1.00000E+00
 -1        65 1.00000E+00 1.00000E+00 1.50000E+00
 -1        66 1.00000E+00 1.00000E+00 2.00000E+00
 -1        67 1.00000E+00 1.00000E+00 2.50000E+00
 -1        68 1.00000E+00 1.00000E+00 3.00000E+00
 -1        69 1.00000E+00 1.00000E+00 3.50000E+00
 -1        70 1.00000E+00 1.00000E+00 4.00000E+00
 -1        71 1.00000E+00 1.00000E+00 4.50000E+00
 -1        72 1.00000E+00 1.00000E+00 5.00000E+00
 -1        73 1.00000E+00 1.00000E+00 5.50000E+00
 -1        74 1.00000E+00 1.00000E+00 6.00000E+00
 -1        78 0.00000E+00 1.00000E+00 5.00000E-01
 -1        79 0.00000E+00 1.00000E+00 1.00000E+00
 -1        80 0.00000E+00 1.00000E+00 1.50000E+00
 -1        81 0.00000E+00 1.00000E+00 2.00000E+00
 -1        82 0.00000E+00 1.00000E+00 2.50000E+00
 -1        83 0.00000E+00 1.00000E+00 3.00000E+00
 -1        84 0.00000E+00 1.00000E+00 3.50000E+00
 -1        85 0.00000E+00 1.00000E+00 4.00000E+00
 -1        86 0.00000E+00 1.00000E+00 4.50000E+00
 -1        87 0.00000E+00 1.00000E+00 5.00000E+00
 -1        88 0.00000E+00 1.00000E+00 5.50000E+00
 -1        89 0.00000E+00 1.00000E+00 6.00000E+00
 -1        93 5.00000E-01 2.50000E-01 0.00000E+00
 -1        94 2.50000E-01 5.00000E-01 0.00000E+00
 -1        95 5.00000E-01 5.00000E-01 0.00000E+00
 -1        96 7.50000E-01 5.00000E-01 0.00000E+00
 -1        97 5.00000E-01 7.50000E-01 0.00000E+00
 -1       103 5.00000E-01 0.00000E+00 5.00000E-01
 -1       104 2.50000E-01 0.00000E+00 1.00000E+00
 -1       105 5.00000E-01 0.00000E+00 1.00000E+00
 -1       106 7.50000E-01 0.00000E+00 1.00000E+00
 -1       107 5.00000E-01 0.00000E+00 1.50000E+00
 -1       108 2.50000E-01 0.00000E+00 2.00000E+00
 -1       109 5.00000E-01 0.00000E+00 2.00000E+00
 -1       110 7.50000E-01 0.00000E+00 2.00000E+00
 -1       111 5.00000E-01 0.00000E+00 2.50000E+00
 -1       112 2.50000E-01 0.00000E+00 3.00000E+00
 -1       113 5.00000E-01 0.00000E+00 3.00000E+00
 -1       114 7.50000E-01 0.00000E+00 3.00000E+00
 -1       115 5.00000E-01 0.00000E+00 3.50000E+00
 -1       116 2.50000E-01 0.00000E+00 4.00000E+00
 -1       117 5.00000E-01 0.00000E+00 4.00000E+00
 -1       118 7.50000E-01 0.00000E+00 4.00000E+00
 -1       119 5.00000E-01 0.00000E+00 4.50000E+00
 -1       120 2.50000E-01 0.00000E+00 5.00000E+00
 -1       121 5.00000E-01 0.00000E+00 5.00000E+00
 -1       122 7.50000E-01 0.00000E+00 5.00000E+00
 -1       123 5.00000E-01 0.00000E+00 5.50000E+00
 -1       124 2.50000E-01 0.00000E+00 6.00000E+00
 -1       125 5.00000E-01 0.00000E+00 6.00000E+00
 -1       126 7.50000E-01 0.00000E+00 6.00000E+00
 -1       132 1.00000E+00 5.00000E-01 5.00000E-01
 -1       133 1.00000E+00 2.50000E-01 1.00000E+00
 -1       134 1.00000E+00 5.00000E-01 1.00000E+00
 -1       135 1.00000E+00 7.50000E-01 1.00000E+00
 -1       136 1.00000E+00 5.00000E-01 1.50000E+00
 -1       137 1.00000E+00 2.50000E-01 2.00000E+00
 -1       138 1.00000E+00 5.00000E-01 2.00000E+00
 -1       139 1.00000E+00 7.50000E-01 2.00000E+00
 -1       140 1.00000E+00 5.00000E-01 2.50000E+00
 -1       141 1.00000E+00 2.50000E-01 3.00000E+00
 -1       142 1.00000E+00 5.00000E-01 3.00000E+00
 -1       143 1.00000E+00 7.50000E-01 3.00000E+00
 -1       144 1.00000E+00 5.00000E-01 3.50000E+00
 -1       145 1.00000E+00 2.50000E-01 4.00000E+00
 -1       146 1.00000E+00 5.00000E-01 4.00000E+00
 -1       147 1.00000E+00 7.50000E-01 4.00000E+00
 -1       148 1.00000E+00 5.00000E-01 4.50000E+00
 -1       149 1.00000E+00 2.50000E-01 5.00000E+00
 -1       150 1.00000E+00 5.00000E-01 5.00000E+00
 -1       151 1.00000E+00 7.50000E-01 5.00000E+00
 -1       152 1.00000E+00 5.00000E-01 5.50000E+00
 -1       153 1.00000E+00 2.50000E-01 6.00000E+00
 -1       154 1.00000E+00 5.00000E-01 6.00000E+00
 -1       155 1.00000E+00 7.50000E-01 6.00000E+00
 -1       161 5.00000E-01 1.00000E+00 5.00000E-01
 -1       162 7.50000E-01 1.00000E+00 1.00000E+00
 -1       163 5.00000E-01 1.00000E+00 1.00000E+00
 -1       164 2.50000E-01 1.00000E+00 1.00000E+00
 -1       165 5.00000E-01 1.00000E+00 1.50000E+00
 -1       166 7.50000E-01 1.00000E+00 2.00000E+00
 -1       167 5.00000E-01 1.00000E+00 2.00000E+00
 -1       168 2.50000E-01 1.00000E+00 2.00000E+00
 -1       169 5.00000E-01 1.00000E+00 2.50000E+00
 -1       170 7.50000E-01 1.00000E+00 3.00000E+00
 -1       171 5.00000E-01 1.00000E+00 3.00000E+00
 -1       172 2.50000E-01 1.00000E+00 3.00000E+00
 -1       173 5.00000E-01 1.00000E+00 3.50000E+00
 -1       174 7.50000E-01 1.00000E+00 4.00000E+00
 -1       175 5.00000E-01 1.00000E+00 4.00000E+00
 -1       176 2.50000E-01 1.00000E+00 4.00000E+00
 -1       177 5.00000E-01 1.00000E+00 4.50000E+00
 -1       178 7.50000E-01 1.00000E+00 5.00000E+00
 -1       179 5.00000E-01 1.00000E+00 5.00000E+00
 -1       180 2.50000E-01 1.00000E+00 5.00000E+00
 -1       181 5.00000E-01 1.00000E+00 5.50000E+00
 -1       182 7.50000E-01 1.00000E+00 6.00000E+00
 -1       183 5.00000E-01 1.00000E+00 6.00000E+00
 -1       184 2.50000E-01 1.00000E+00 6.00000E+00
 -1       190 0.00000E+00 5.00000E-01 5.00000E-01
 -1       191 0.00000E+00 7.50000E-01 1.00000E+00
 -1       192 0.00000E+00 5.00000E-01 1.00000E+00
 -1       193 0.00000E+00 2.50000E-01 1.00000E+00
 -1       194 0.00000E+00 5.00000E-01 1.50000E+00
 -1       195 0.00000E+00 7.50000E-01 2.00000E+00
 -1       196 0.00000E+00 5.00000E-01 2.00000E+00
 -1       197 0.00000E+00 2.50000E-01 2.00000E+00
 -1       198 0.00000E+00 5.00000E-01 2.50000E+00
 -1       199 0.00000E+00 7.50000E-01 3.00000E+00
 -1       200 0.00000E+00 5.00000E-01 3.00000E+00
 -1       201 0.00000E+00 2.50000E-01 3.00000E+00
 -1       202 0.00000E+00 5.00000E-01 3.50000E+00
 -1       203 0.00000E+00 7.50000E-01 4.00000E+00
 -1       204 0.00000E+00 5.00000E-01 4.00000E+00
 -1       205 0.00000E+00 2.50000E-01 4.00000E+00
 -1       206 0.00000E+00 5.00000E-01 4.50000E+00
 -1       207 0.00000E+00 7.50000E-01 5.00000E+00
 -1       208 0.00000E+00 5.00000E-01 5.00000E+00
 -1       209 0.00000E+00 2.50000E-01 5.00000E+00
 -1       210 0.00000E+00 5.00000E-01 5.50000E+00
 -1       211 0.00000E+00 7.50000E-01 6.00000E+00
 -1       212 0.00000E+00 5.00000E-01 6.00000E+00
 -1       213 0.00000E+00 2.50000E-01 6.00000E+00
 -1       219 5.00000E-01 5.00000E-01 5.00000E-01
 -1       220 5.00000E-01 2.50000E-01 1.00000E+00
 -1       221 2.50000E-01 5.00000E-01 1.00000E+00
 -1       222 5.00000E-01 5.00000E-01 1.00000E+00
 -1       223 7.50000E-01 5.00000E-01 1.00000E+00
 -1       224 5.00000E-01 7.50000E-01 1.00000E+00
 -1       225 5.00000E-01 5.00000E-01 1.50000E+00
 -1       226 5.00000E-01 2.50000E-01 2.00000E+00
 -1       227 2.50000E-01 5.00000E-01 2.00000E+00
 -1       228 5.00000E-01 5.00000E-01 2.00000E+00
 -1       229 7.50000E-01 5.00000E-01 2.00000E+00
 -1       230 5.00000E-01 7.50000E-01 2.00000E+00
 -1       231 5.00000E-01 5.00000E-01 2.50000E+00
 -1       232 5.00000E-01 2.50000E-01 3.00000E+00
 -1       233 2.50000E-01 5.00000E-01 3.00000E+00
 -1       234 5.00000E-01 5.00000E-01 3.00000E+00
 -1       235 7.50000E-01 5.00000E-01 3.00000E+00
 -1       236 5.00000E-01 7.50000E-01 3.00000E+00
 -1       237 5.00000E-01 5.00000E-01 3.50000E+00
 -1       238 5.00000E-01 2.50000E-01 4.00000E+00
 -1       239 2.50000E-01 5.00000E-01 4.00000E+00
 -1       240 5.00000E-01 5.00000E-01 4.00000E+00
 -1       241 7.50000E-01 5.00000E-01 4.00000E+00
 -1       242 5.00000E-01 7.50000E-01 4.00000E+00
 -1       243 5.00000E-01 5.00000E-01 4.50000E+00
 -1       244 5.00000E-01 2.50000E-01 5.00000E+00
 -1       245 2.50000E-01 5.00000E-01 5.00000E+00
 -1       246 5.00000E-01 5.00000E-01 5.00000E+00
 -1       247 7.50000E-01 5.00000E-01 5.00000E+00
 -1       248 5.00000E-01 7.50000E-01 5.00000E+00
 -1       249 5.00000E-01 5.00000E-01 5.50000E+00
 -1       250 5.00000E-01 2.50000E-01 6.00000E+00
 -1       251 2.50000E-01 5.00000E-01 6.00000E+00
 -1       252 5.00000E-01 5.00000E-01 6.00000E+00
 -1       253 7.50000E-01 5.00000E-01 6.00000E+00
 -1       254 5.00000E-01 7.50000E-01 6.00000E+00
 -3
    3C                            24                                     1
 -1         1    4    0    1
 -2         1        10        95        19        61       105       222       192         9        93
 -2        94        20        62       103       219       190       104       220       221       193
 -1         2    4    0    1
 -2        10         2        13        95       105        34       134       222        11        12
 -2        96        93       103        33       132       219       106       133       223       220
 -1         3    4    0    1
 -2        19        95        16         4       192       222       163        79        94        97
 -2        17        18       190       219       161        78       221       224       164       191
 -1         4    4    0    1
 -2        95        13         3        16       222       134        64       163        96        14
 -2        15        97       219       132        63       161       223       135       162       224
 -1         5    4    0    1
 -2        61       105       222       192        59       109       228       196       104       220
 -2       221       193        60       107       225       194       108       226       227       197
 -1         6    4    0    1
 -2       105        34       134       222       109        36       138       228       106       133
 -2       223       220       107        35       136       225       110       137       229       226
 -1         7    4    0    1
 -2       192       222       163        79       196       228       167        81       221       224
 -2       164       191       194       225       165        80       227       230       168       195
 -1         8    4    0    1
 -2       222       134        64       163       228       138        66       167       223       135
 -2       162       224       225       136        65       165       229       139       166       230
 -1         9    4    0    1
 -2        59       109       228       196        57       113       234       200       108       226
 -2       227       197        58       111       231       198       112       232       233       201
 -1        10    4    0    1
 -2       109        36       138       228       113        38       142       234       110       137
 -2       229       226       111        37       140       231       114       141       235       232
 -1        11    4    0    1
 -2       196       228       167        81       200       234       171        83       227       230
 -2       168       195       198       231       169        82       233       236       172       199
 -1        12    4    0    1
 -2       228       138        66       167       234       142        68       171       229       139
 -2       166       230       231       140        67       169       235       143       170       236
 -1        13    4    0    1
 -2        57       113       234       200        55       117       240       204       112       232
 -2       233       201        56       115       237       202       116       238       239       205
 -1        14    4    0    1
 -2       113        38       142       234       117        40       146       240       114       141
 -2       235       232       115        39       144       237       118       145       241       238
 -1        15    4    0    1
 -2       200       234       171        83       204       240       175        85       233       236
 -2       172       199       202       237       173        84       239       242       176       203
 -1        16    4    0    1
 -2       234       142        68       171       240       146        70       175       235       143
 -2       170       236       237       144        69       173       241       147       174       242
 -1        17    4    0    1
 -2        55       117       240       204        53       121       246       208       116       238
 -2       239       205        54       119       243       206       120       244       245       209
 -1        18    4    0    1
 -2       117        40       146       240       121        42       150       246       118       145
 -2       241       238       119        41       148       243       122       149       247       244
 -1        19    4    0    1
 -2       204       240       175        85       208       246       179        87       239       242
 -2       176       203       206       243       177        86       245       248       180       207
 -1        20    4    0    1
 -2       240       146        70       175       246       150        72       179       241       147
 -2       174       242       243       148        71       177       247       151       178       248
 -1        21    4    0    1
 -2        53       121       246       208        51       125       252       212       120       244
 -2       245       209        52       123       249       210       124       250       251       213
 -1        22    4    0    1
 -2       121        42       150       246       125        44       154       252       122       149
 -2       247       244       123        43       152       249       126       153       253       250
 -1        23    4    0    1
 -2       208       246       179        87       212       252       183        89       245       248
 -2       180       207       210       249       181        88       251       254       184       211
 -1        24    4    0    1
 -2       246       150        72       179       252       154        74       183       247       151
 -2       178       248       249       152        73       181       253       155       182       254
 -3
    1PSTEP                         1           1           1          
  100CL  101 5.00000E-03         201                     1    1           1
 -4  DISP        4    1
 -5  D1          1    2    1    0
 -5  D2          1    2    2    0
 -5  D3          1    2    3    0
 -5  ALL         1    2    0    0    1ALL
 -1         1 0.00000E+00 0.00000E+00 0.00000E+00
 -1         2 0.00000E+00 0.00000E+00 0.00000E+00
 -1         3 0.00000E+00 0.00000E+00 0.00000E+00
 -1         4 0.00000E+00 0.00000E+00 0.00000E+00
 -1         9 0.00000E+00 0.00000E+00 0.00000E+00
 -1        10 0.00000E+00 0.00000E+00 0.00000E+00
 -1        11 0.00000E+00 0.00000E+00 0.00000E+00
 -1        12 0.00000E+00 0.00000E+00 0.00000E+00
 -1        13 0.00000E+00 0.00000E+00 0.00000E+00
 -1        14 0.00000E+00 0.00000E+00 0.00000E+00
 -1        15 0.00000E+00 0.00000E+00 0.00000E+00
 -1        16 0.00000E+00 0.00000E+00 0.00000E+00
 -1        17 0.00000E+00 0.00000E+00 0.00000E+00
 -1        18 0.00000E+00 0.00000E+00 0.00000E+00
 -1        19 0.00000E+00 0.00000E+00 0.00000E+00
 -1        20 0.00000E+00 0.00000E+00 0.00000E+00
 -1        33 9.22321E-05-1.48645E-04-1.84786E-04
 -1        34 3.87701E-05-4.59822E-04-3.62692E-04
 -1        35 3.59177E-05-9.46548E-04-4.74642E-04
 -1        36 1.31726E-05-1.49812E-03-5.40493E-04
 -1        37-9.15441E-06-2.08428E-03-5.42838E-04
 -1        38-3.68696E-05-2.66519E-03-5.08716E-04
 -1        39-4.57330E-05-3.15362E-03-3.74042E-04
 -1        40-2.70114E-05-3.48862E-03-2.26477E-04
 -1        41-1.15260E-04-3.57447E-03-7.61824E-05
 -1        42-2.39287E-04-3.73043E-03-1.03177E-04
 -1        43 3.22808E-04-3.23386E-03 2.02309E-04
 -1        44 6.81869E-04-2.79623E-03 4.78721E-04
 -1        51-6.81582E-04-2.79614E-03 4.78493E-04
 -1        52-3.22368E-04-3.23391E-03 2.02127E-04
 -1        53 2.39887E-04-3.73043E-03-1.03244E-04
 -1        54 1.15849E-04-3.57450E-03-7.62020E-05
 -1        55 2.76162E-05-3.48863E-03-2.26453E-04
 -1        56 4.62717E-05-3.15363E-03-3.73991E-04
 -1        57 3.73413E-05-2.66520E-03-5.08638E-04
 -1        58 9.52433E-06-2.08429E-03-5.42749E-04
 -1        59-1.29021E-05-1.49812E-03-5.40400E-04
 -1        60-3.57472E-05-9.46542E-04-4.74560E-04
 -1        61-3.86859E-05-4.59815E-04-3.62628E-04
 -1        62-9.22050E-05-1.48629E-04-1.84753E-04
 -1        63-9.01332E-05-1.45834E-04 1.80579E-04
 -1        64-3.82920E-05-4.58759E-04 3.53758E-04
 -1        65-3.21406E-05-9.45457E-04 4.61272E-04
 -1        66-1.15705E-05-1.50525E-03 5.23750E-04
 -1        67 8.99386E-06-2.07192E-03 5.20455E-04
 -1        68 2.85929E-05-2.66297E-03 4.79266E-04
 -1        69 6.71722E-05-3.16761E-03 3.39548E-04
 -1        70 5.74859E-05-3.59179E-03 1.93765E-04
 -1        71 4.71519E-05-3.42429E-03 3.26886E-05
 -1        72 2.31398E-05-3.40310E-03 2.61744E-05
 -1        73 3.31221E-05-3.75769E-03-3.00213E-04
 -1        74-2.58071E-04-3.95268E-03-5.36547E-04
 -1        78 9.01603E-05-1.45850E-04 1.80612E-04
 -1        79 3.83761E-05-4.58766E-04 3.53822E-04
 -1        80 3.23109E-05-9.45462E-04 4.61355E-04
 -1        81 1.18406E-05-1.50525E-03 5.23842E-04
 -1        82-8.62431E-06-2.07192E-03 5.20544E-04
 -1        83-2.81216E-05-2.66296E-03 4.79344E-04
 -1        84-6.66341E-05-3.16759E-03 3.39599E-04
 -1        85-5.68819E-05-3.59178E-03 1.93789E-04
 -1        86-4.65632E-05-3.42426E-03 3.26691E-05
 -1        87-2.25420E-05-3.40310E-03 2.61076E-05
 -1        88-3.26827E-05-3.75764E-03-3.00394E-04
 -1        89 2.58357E-04-3.95277E-03-5.36775E-04
 -1        93 0.00000E+00 0.00000E+00 0.00000E+00
 -1        94 0.00000E+00 0.00000E+00 0.00000E+00
 -1        95 0.00000E+00 0.00000E+00 0.00000E+00
 -1        96 0.00000E+00 0.00000E+00 0.00000E+00
 -1        97 0.00000E+00 0.00000E+00 0.00000E+00
 -1       103 9.34262E-09-1.86089E-04-1.81382E-04
 -1       104-1.96854E-05-4.86366E-04-3.71246E-04
 -1       105 4.08816E-08-4.90756E-04-3.74164E-04
 -1       106 1.97665E-05-4.86370E-04-3.71276E-04
 -1       107 8.36069E-08-9.59731E-04-4.78536E-04
 -1       108-4.34373E-06-1.50619E-03-5.44050E-04
 -1       109 1.33673E-07-1.52066E-03-5.43134E-04
 -1       110 4.61251E-06-1.50619E-03-5.44095E-04
 -1       111 1.87173E-07-2.06597E-03-5.44494E-04
 -1       112 1.14999E-05-2.68395E-03-5.21078E-04
 -1       113 2.32412E-07-2.68148E-03-5.28273E-04
 -1       114-1.10302E-05-2.68395E-03-5.21115E-04
 -1       115 2.75714E-07-3.11871E-03-3.87697E-04
 -1       116 4.11920E-05-3.50162E-03-2.05267E-04
 -1       117 2.92418E-07-3.63179E-03-1.73377E-04
 -1       118-4.05970E-05-3.50161E-03-2.05278E-04
 -1       119 3.11161E-07-3.44673E-03-4.32417E-05
 -1       120 3.48283E-05-3.76764E-03-1.12553E-04
 -1       121 2.74165E-07-3.65952E-03-1.61294E-04
 -1       122-3.42461E-05-3.76764E-03-1.12508E-04
 -1       123 2.40659E-07-3.51558E-03-8.29917E-05
 -1       124-6.33982E-05-3.14540E-03 4.45638E-04
 -1       125 8.97488E-08-3.87511E-03 4.73247E-04
 -1       126 6.36199E-05-3.14542E-03 4.45702E-04
 -1       132 1.16433E-06-9.94440E-05-1.88413E-06
 -1       133 2.05228E-05-4.43458E-04-1.73256E-04
 -1       134 1.28828E-06-4.48747E-04-3.81375E-06
 -1       135-1.91046E-05-4.43261E-04 1.64620E-04
 -1       136 2.89171E-07-9.22625E-04-6.97045E-06
 -1       137 5.03734E-06-1.49602E-03-2.66807E-04
 -1       138 1.15810E-06-1.49197E-03-9.59614E-06
 -1       139-3.11744E-06-1.49822E-03 2.49969E-04
 -1       140 2.20984E-06-2.09363E-03-1.13557E-05
 -1       141-7.09684E-06-2.65294E-03-2.43529E-04
 -1       142 6.08164E-06-2.64708E-03-7.67248E-06
 -1       143 9.92905E-06-2.65709E-03 2.17663E-04
 -1       144-8.42835E-06-3.20855E-03-1.68174E-05
 -1       145-5.62334E-05-3.51610E-03-1.33131E-04
 -1       146-9.40671E-06-3.46786E-03-3.10691E-05
 -1       147 5.25189E-05-3.54865E-03 9.47961E-05
 -1       148 2.40576E-05-3.58477E-03-2.71998E-05
 -1       149 7.38235E-05-3.39542E-03-4.85521E-05
 -1       150 8.45523E-05-3.24987E-03-1.42372E-05
 -1       151-6.26741E-05-3.28937E-03-2.07939E-05
 -1       152-1.26608E-04-3.84131E-03 1.39659E-05
 -1       153-3.56695E-04-3.24389E-03 1.79665E-04
 -1       154-8.48423E-05-2.91674E-03-3.12641E-05
 -1       155 3.09299E-04-3.63045E-03-2.39827E-04
 -1       161 9.30308E-09-1.83973E-04 1.77022E-04
 -1       162-1.93269E-05-4.85146E-04 3.62841E-04
 -1       163 4.08078E-08-4.87257E-04 3.64913E-04
 -1       164 1.94079E-05-4.85149E-04 3.62871E-04
 -1       165 8.34871E-08-9.59423E-04 4.66192E-04
 -1       166-4.38129E-06-1.50228E-03 5.25830E-04
 -1       167 1.33527E-07-1.51508E-03 5.27664E-04
 -1       168 4.64976E-06-1.50228E-03 5.25875E-04
 -1       169 1.86969E-07-2.06656E-03 5.19266E-04
 -1       170 1.02074E-05-2.68338E-03 4.95039E-04
 -1       171 2.32202E-07-2.64536E-03 4.92563E-04
 -1       172-9.73823E-06-2.68337E-03 4.95076E-04
 -1       173 2.75419E-07-3.14187E-03 3.61549E-04
 -1       174 4.31193E-05-3.44021E-03 1.61424E-04
 -1       175 2.92169E-07-3.55823E-03 1.54171E-04
 -1       176-4.25249E-05-3.44020E-03 1.61436E-04
 -1       177 3.10760E-07-3.39510E-03-1.96686E-05
 -1       178-3.77868E-05-3.88400E-03 7.19093E-05
 -1       179 2.73918E-07-3.46115E-03 8.92713E-05
 -1       180 3.83681E-05-3.88401E-03 7.18642E-05
 -1       181 2.40075E-07-3.72549E-03-2.78541E-05
 -1       182 2.60640E-05-2.66716E-03-4.97223E-04
 -1       183 8.98020E-08-4.74671E-03-5.02998E-04
 -1       184-2.58427E-05-2.66718E-03-4.97287E-04
 -1       190-1.13048E-06-9.94440E-05-1.85203E-06
 -1       191 1.91931E-05-4.43265E-04 1.64685E-04
 -1       192-1.19867E-06-4.48747E-04-3.74757E-06
 -1       193-2.04342E-05-4.43455E-04-1.73190E-04
 -1       194-1.16986E-07-9.22625E-04-6.88733E-06
 -1       195 3.38929E-06-1.49822E-03 2.50063E-04
 -1       196-8.84734E-07-1.49197E-03-9.50150E-06
 -1       197-4.76532E-06-1.49602E-03-2.66713E-04
 -1       198-1.84315E-06-2.09363E-03-1.12659E-05
 -1       199-9.45856E-06-2.65709E-03 2.17743E-04
 -1       200-5.60957E-06-2.64708E-03-7.59099E-06
 -1       201 7.56759E-06-2.65295E-03-2.43449E-04
 -1       202 8.95885E-06-3.20855E-03-1.67677E-05
 -1       203-5.19132E-05-3.54864E-03 9.48233E-05
 -1       204 1.00154E-05-3.46786E-03-3.10431E-05
 -1       205 5.68394E-05-3.51611E-03-1.33104E-04
 -1       206-2.34892E-05-3.58477E-03-2.72172E-05
 -1       207 6.32718E-05-3.28938E-03-2.08525E-05
 -1       208-8.39407E-05-3.24987E-03-1.42724E-05
 -1       209-7.32253E-05-3.39542E-03-4.86106E-05
 -1       210 1.27031E-04-3.84131E-03 1.37566E-05
 -1       211-3.08939E-04-3.63049E-03-2.40039E-04
 -1       212 8.52532E-05-2.91674E-03-3.15234E-05
 -1       213 3.57056E-04-3.24386E-03 1.79452E-04
 -1       219 1.26365E-08-1.36618E-04-1.66244E-06
 -1       220 4.26272E-08-4.69988E-04-1.80507E-04
 -1       221-5.61237E-07-4.70821E-04-4.56155E-06
 -1       222 4.25907E-08-4.71551E-04-4.71439E-06
 -1       223 6.46762E-07-4.70821E-04-4.59316E-06
 -1       224 4.25901E-08-4.68073E-04 1.71685E-04
 -1       225 8.51658E-08-9.39295E-04-6.56077E-06
 -1       226 1.33290E-07-1.50703E-03-2.73422E-04
 -1       227-4.18380E-07-1.49032E-03-8.68493E-06
 -1       228 1.32881E-07-1.49209E-03-1.01561E-05
 -1       229 6.87659E-07-1.49032E-03-8.73082E-06
 -1       230 1.33217E-07-1.50459E-03 2.53939E-04
 -1       231 1.87122E-07-2.09645E-03-9.80327E-06
 -1       232 2.29853E-07-2.65696E-03-2.50636E-04
 -1       233-2.46138E-06-2.64682E-03-1.57575E-05
 -1       234 2.28235E-07-2.63560E-03-1.70366E-05
 -1       235 2.92756E-06-2.64682E-03-1.57959E-05
 -1       236 2.29746E-07-2.63787E-03 2.21211E-04
 -1       237 2.73954E-07-3.16737E-03-1.30832E-05
 -1       238 2.86967E-07-3.57572E-03-1.29926E-04
 -1       239 6.20350E-06-3.41365E-03-1.85794E-05
 -1       240 2.83298E-07-3.45293E-03-2.34805E-05
 -1       241-5.61741E-06-3.41365E-03-1.85960E-05
 -1       242 2.86852E-07-3.53915E-03 8.41157E-05
 -1       243 3.11360E-07-3.58464E-03-2.68162E-05
 -1       244 2.64673E-07-3.46345E-03-2.29382E-05
 -1       245-4.18130E-05-3.53320E-03-3.72852E-05
 -1       246 2.58503E-07-3.47953E-03-2.79655E-05
 -1       247 4.23909E-05-3.53320E-03-3.72379E-05
 -1       248 2.64514E-07-3.38244E-03-1.18364E-05
 -1       249 2.37388E-07-3.57238E-03-2.17492E-05
 -1       250 8.16640E-08-4.09244E-03 1.60458E-04
 -1       251 5.26118E-05-2.51020E-03-2.28169E-05
 -1       252 7.60071E-08-3.45777E-03-2.07567E-05
 -1       253-5.23523E-05-2.51020E-03-2.28120E-05
 -1       254 8.18386E-08-4.42845E-03-2.47617E-04
 -3
    1PSTEP                         2           2           1          
  100CL  102 1.00000E-02         201                     1    2           1
 -4  DISP        4    1
 -5  D1          1    2    1    0
 -5  D2          1    2    2    0
 -5  D3          1    2    3    0
 -5  ALL         1    2    0    0    1ALL
 -1         1 0.00000E+00 0.00000E+00 0.00000E+00
 -1         2 0.00000E+00 0.00000E+00 0.00000E+00
 -1         3 0.00000E+00 0.00000E+00 0.00000E+00
 -1         4 0.00000E+00 0.00000E+00 0.00000E+00
 -1         9 0.00000E+00 0.00000E+00 0.00000E+00
 -1        10 0.00000E+00 0.00000E+00 0.00000E+00
 -1        11 0.00000E+00 0.00000E+00 0.00000E+00
 -1        12 0.00000E+00 0.00000E+00 0.00000E+00
 -1        13 0.00000E+00 0.00000E+00 0.00000E+00
 -1        14 0.00000E+00 0.00000E+00 0.00000E+00
 -1        15 0.00000E+00 0.00000E+00 0.00000E+00
 -1        16 0.00000E+00 0.00000E+00 0.00000E+00
 -1        17 0.00000E+00 0.00000E+00 0.00000E+00
 -1        18 0.00000E+00 0.00000E+00 0.00000E+00
 -1        19 0.00000E+00 0.00000E+00 0.00000E+00
 -1        20 0.00000E+00 0.00000E+00 0.00000E+00
 -1        33-4.66339E-05 7.63287E-05 9.39501E-05
 -1        34-1.92096E-05 2.35319E-04 1.82948E-04
 -1        35-1.77221E-05 4.85442E-04 2.39771E-04
 -1        36-6.10349E-06 7.65328E-04 2.71221E-04
 -1        37 5.69988E-06 1.06845E-03 2.71143E-04
 -1        38 2.11369E-05 1.36175E-03 2.45728E-04
 -1        39 2.52716E-05 1.60815E-03 1.80592E-04
 -1        40 1.40046E-05 1.77431E-03 9.90643E-05
 -1        41 5.57434E-05 1.82423E-03 2.62183E-05
 -1        42 1.05440E-04 1.84337E-03-2.25521E-05
 -1        43-1.12517E-04 1.65507E-03-1.43753E-04
 -1        44-4.04977E-04 1.38019E-03-2.52834E-04
 -1        51 4.04978E-04 1.38024E-03-2.52883E-04
 -1        52 1.12525E-04 1.65511E-03-1.43747E-04
 -1        53-1.05456E-04 1.84339E-03-2.25365E-05
 -1        54-5.57373E-05 1.82424E-03 2.62256E-05
 -1        55-1.40104E-05 1.77432E-03 9.90591E-05
 -1        56-2.52695E-05 1.60817E-03 1.80594E-04
 -1        57-2.11403E-05 1.36176E-03 2.45730E-04
 -1        58-5.69994E-06 1.06846E-03 2.71146E-04
 -1        59 6.10069E-06 7.65335E-04 2.71223E-04
 -1        60 1.77205E-05 4.85448E-04 2.39773E-04
 -1        61 1.92073E-05 2.35323E-04 1.82950E-04
 -1        62 4.66329E-05 7.63307E-05 9.39510E-05
 -1        63 4.66157E-05 7.63251E-05-9.39320E-05
 -1        64 1.91942E-05 2.35330E-04-1.82910E-04
 -1        65 1.77480E-05 4.85399E-04-2.39714E-04
 -1        66 6.17530E-06 7.65298E-04-2.71151E-04
 -1        67-5.84944E-06 1.06855E-03-2.71046E-04
 -1        68-2.14232E-05 1.36207E-03-2.45594E-04
 -1        69-2.46865E-05 1.60756E-03-1.80437E-04
 -1        70-1.28416E-05 1.77359E-03-9.89361E-05
 -1        71-5.80649E-05 1.82610E-03-2.60313E-05
 -1        72-1.10794E-04 1.84804E-03 2.29500E-05
 -1        73 1.22347E-04 1.64630E-03 1.44264E-04
 -1        74 4.23824E-04 1.36575E-03 2.53078E-04
 -1        78-4.66136E-05 7.63266E-05-9.39315E-05