    1C
    1UUSER                                                              
    1UDATE              09.july.2018                                    
    1UTIME              11:10:15                                        
    1UHOST                                                              
    1UPGM               CalculiX                                        
    1UVERSION           Version 2.13                             
    1UCOMPILETIME       jue jun 14 00:40:39 CEST 2018                    
    1UDIR                                                               
    1UDBN                                                               
    1UMAT    1EL                                                        
    2C                            81                                     1
 -1         5 0.00000E+00 0.00000E+00 8.00000E+00
 -1         6 1.00000E+00 0.00000E+00 8.00000E+00
 -1         7 1.00000E+00 1.00000E+00 8.00000E+00
 -1         8 0.00000E+00 1.00000E+00 8.00000E+00
 -1        21 2.50000E-01 0.00000E+00 8.00000E+00
 -1        22 5.00000E-01 0.00000E+00 8.00000E+00
 -1        23 7.50000E-01 0.00000E+00 8.00000E+00
 -1        24 1.00000E+00 2.50000E-01 8.00000E+00
 -1        25 1.00000E+00 5.00000E-01 8.00000E+00
 -1        26 1.00000E+00 7.50000E-01 8.00000E+00
 -1        27 7.50000E-01 1.00000E+00 8.00000E+00
 -1        28 5.00000E-01 1.00000E+00 8.00000E+00
 -1        29 2.50000E-01 1.00000E+00 8.00000E+00
 -1        30 0.00000E+00 7.50000E-01 8.00000E+00
 -1        31 0.00000E+00 5.00000E-01 8.00000E+00
 -1        32 0.00000E+00 2.50000E-01 8.00000E+00
 -1        44 1.00000E+00 0.00000E+00 6.00000E+00
 -1        45 1.00000E+00 0.00000E+00 6.50000E+00
 -1        46 1.00000E+00 0.00000E+00 7.00000E+00
 -1        47 1.00000E+00 0.00000E+00 7.50000E+00
 -1        48 0.00000E+00 0.00000E+00 7.50000E+00
 -1        49 0.00000E+00 0.00000E+00 7.00000E+00
 -1        50 0.00000E+00 0.00000E+00 6.50000E+00
 -1        51 0.00000E+00 0.00000E+00 6.00000E+00
 -1        74 1.00000E+00 1.00000E+00 6.00000E+00
 -1        75 1.00000E+00 1.00000E+00 6.50000E+00
 -1        76 1.00000E+00 1.00000E+00 7.00000E+00
 -1        77 1.00000E+00 1.00000E+00 7.50000E+00
 -1        89 0.00000E+00 1.00000E+00 6.00000E+00
 -1        90 0.00000E+00 1.00000E+00 6.50000E+00
 -1        91 0.00000E+00 1.00000E+00 7.00000E+00
 -1        92 0.00000E+00 1.00000E+00 7.50000E+00
 -1        98 5.00000E-01 2.50000E-01 8.00000E+00
 -1        99 2.50000E-01 5.00000E-01 8.00000E+00
 -1       100 5.00000E-01 5.00000E-01 8.00000E+00
 -1       101 7.50000E-01 5.00000E-01 8.00000E+00
 -1       102 5.00000E-01 7.50000E-01 8.00000E+00
 -1       124 2.50000E-01 0.00000E+00 6.00000E+00
 -1       125 5.00000E-01 0.00000E+00 6.00000E+00
 -1       126 7.50000E-01 0.00000E+00 6.00000E+00
 -1       127 5.00000E-01 0.00000E+00 6.50000E+00
 -1       128 2.50000E-01 0.00000E+00 7.00000E+00
 -1       129 5.00000E-01 0.00000E+00 7.00000E+00
 -1       130 7.50000E-01 0.00000E+00 7.00000E+00
 -1       131 5.00000E-01 0.00000E+00 7.50000E+00
 -1       153 1.00000E+00 2.50000E-01 6.00000E+00
 -1       154 1.00000E+00 5.00000E-01 6.00000E+00
 -1       155 1.00000E+00 7.50000E-01 6.00000E+00
 -1       156 1.00000E+00 5.00000E-01 6.50000E+00
 -1       157 1.00000E+00 2.50000E-01 7.00000E+00
 -1       158 1.00000E+00 5.00000E-01 7.00000E+00
 -1       159 1.00000E+00 7.50000E-01 7.00000E+00
 -1       160 1.00000E+00 5.00000E-01 7.50000E+00
 -1       182 7.50000E-01 1.00000E+00 6.00000E+00
 -1       183 5.00000E-01 1.00000E+00 6.00000E+00
 -1       184 2.50000E-01 1.00000E+00 6.00000E+00
 -1       185 5.00000E-01 1.00000E+00 6.50000E+00
 -1       186 7.50000E-01 1.00000E+00 7.00000E+00
 -1       187 5.00000E-01 1.00000E+00 7.00000E+00
 -1       188 2.50000E-01 1.00000E+00 7.00000E+00
 -1       189 5.00000E-01 1.00000E+00 7.50000E+00
 -1       211 0.00000E+00 7.50000E-01 6.00000E+00
 -1       212 0.00000E+00 5.00000E-01 6.00000E+00
 -1       213 0.00000E+00 2.50000E-01 6.00000E+00
 -1       214 0.00000E+00 5.00000E-01 6.50000E+00
 -1       215 0.00000E+00 7.50000E-01 7.00000E+00
 -1       216 0.00000E+00 5.00000E-01 7.00000E+00
 -1       217 0.00000E+00 2.50000E-01 7.00000E+00
 -1       218 0.00000E+00 5.00000E-01 7.50000E+00
 -1       250 5.00000E-01 2.50000E-01 6.00000E+00
 -1       251 2.50000E-01 5.00000E-01 6.00000E+00
 -1       252 5.00000E-01 5.00000E-01 6.00000E+00
 -1       253 7.50000E-01 5.00000E-01 6.00000E+00
 -1       254 5.00000E-01 7.50000E-01 6.00000E+00
 -1       255 5.00000E-01 5.00000E-01 6.50000E+00
 -1       256 5.00000E-01 2.50000E-01 7.00000E+00
 -1       257 2.50000E-01 5.00000E-01 7.00000E+00
 -1       258 5.00000E-01 5.00000E-01 7.00000E+00
 -1       259 7.50000E-01 5.00000E-01 7.00000E+00
 -1       260 5.00000E-01 7.50000E-01 7.00000E+00
 -1       261 5.00000E-01 5.00000E-01 7.50000E+00
 -3
    3C                             8                                     1
 -1        25    4    0    1
 -2        51       125       252       212        49       129       258       216       124       250
 -2       251       213        50       127       255       214       128       256       257       217
 -1        26    4    0    1
 -2       125        44       154       252       129        46       158       258       126       153
 -2       253       250       127        45       156       255       130       157       259       256
 -1        27    4    0    1
 -2       212       252       183        89       216       258       187        91       251       254
 -2       184       211       214       255       185        90       257       260       188       215
 -1        28    4    0    1
 -2       252       154        74       183       258       158        76       187       253       155
 -2       182       254       255       156        75       185       259       159       186       260
 -1        29    4    0    1
 -2        49       129       258       216         5        22       100        31       128       256
 -2       257       217        48       131       261       218        21        98        99        32
 -1        30    4    0    1
 -2       129        46       158       258        22         6        25       100       130       157
 -2       259       256       131        47       160       261        23        24       101        98
 -1        31    4    0    1
 -2       216       258       187        91        31       100        28         8       257       260
 -2       188       215       218       261       189        92        99       102        29        30
 -1        32    4    0    1
 -2       258       158        76       187       100        25         7        28       259       159
 -2       186       260       261       160        77       189       101        26        27       102
 -3
    1PSTEP                         1           1           1          
  100CL  101 1.00000E-02          81                     1    1           1
 -4  DISP        4    1
 -5  D1          1    2    1    0
 -5  D2          1    2    2    0
 -5  D3          1    2    3    0
 -5  ALL         1    2    0    0    1ALL
 -1         5 0.00000E+00 0.00000E+00 0.00000E+00
 -1         6 0.00000E+00 0.00000E+00 0.00000E+00
 -1         7 0.00000E+00 0.00000E+00 0.00000E+00
 -1         8 0.00000E+00 0.00000E+00 0.00000E+00
 -1        21 0.00000E+00 0.00000E+00 0.00000E+00
 -1        22 0.00000E+00 0.00000E+00 0.00000E+00
 -1        23 0.00000E+00 0.00000E+00 0.00000E+00
 -1        24 0.00000E+00 0.00000E+00 0.00000E+00
 -1        25 0.00000E+00 0.00000E+00 0.00000E+00
 -1        26 0.00000E+00 0.00000E+00 0.00000E+00
 -1        27 0.00000E+00 0.00000E+00 0.00000E+00
 -1        28 0.00000E+00 0.00000E+00 0.00000E+00
 -1        29 0.00000E+00 0.00000E+00 0.00000E+00
 -1        30 0.00000E+00 0.00000E+00 0.00000E+00
 -1        31 0.00000E+00 0.00000E+00 0.00000E+00
 -1        32 0.00000E+00 0.00000E+00 0.00000E+00
 -1        44 1.54657E-04-2.02099E-03 2.88810E-04
 -1        45 4.25746E-05-1.55731E-03 4.71466E-04
 -1        46-4.82338E-05-1.13238E-03 5.44703E-04
 -1        47 6.91268E-05-4.53556E-04 3.50499E-04
 -1        48-6.91268E-05-4.53556E-04 3.50499E-04
 -1        49 4.82339E-05-1.13238E-03 5.44703E-04
 -1        50-4.25745E-05-1.55731E-03 4.71466E-04
 -1        51-1.54656E-04-2.02099E-03 2.88810E-04
 -1        74-1.27098E-04-2.11221E-03-2.93209E-04
 -1        75-1.76190E-05-1.59726E-03-4.71504E-04
 -1        76 3.27682E-05-1.11337E-03-5.44832E-04
 -1        77-7.68438E-05-4.39226E-04-3.51916E-04
 -1        89 1.27098E-04-2.11221E-03-2.93209E-04
 -1        90 1.76192E-05-1.59726E-03-4.71504E-04
 -1        91-3.27683E-05-1.11337E-03-5.44832E-04
 -1        92 7.68438E-05-4.39226E-04-3.51917E-04
 -1        98 0.00000E+00 0.00000E+00 0.00000E+00
 -1        99 0.00000E+00 0.00000E+00 0.00000E+00
 -1       100 0.00000E+00 0.00000E+00 0.00000E+00
 -1       101 0.00000E+00 0.00000E+00 0.00000E+00
 -1       102 0.00000E+00 0.00000E+00 0.00000E+00
 -1       124 7.26751E-06-1.83863E-03 2.72761E-04
 -1       125 1.00080E-10-2.20089E-03 2.86032E-04
 -1       126-7.26722E-06-1.83863E-03 2.72762E-04
 -1       127 1.88867E-11-1.61293E-03 5.24567E-04
 -1       128 3.07717E-06-1.19462E-03 5.77650E-04
 -1       129 3.90794E-11-1.10823E-03 5.86315E-04
 -1       130-3.07714E-06-1.19462E-03 5.77650E-04
 -1       131 3.23367E-12-4.65097E-04 3.43291E-04
 -1       153-1.25562E-04-2.36143E-03 1.27493E-04
 -1       154-1.04149E-05-2.02258E-03-1.96925E-06
 -1       155 1.24759E-04-2.38835E-03-1.31956E-04
 -1       156-1.11509E-05-1.74506E-03-6.24987E-06
 -1       157 2.44791E-05-9.78222E-04 2.32961E-04
 -1       158 8.07254E-06-1.00107E-03-2.82756E-06
 -1       159-2.17053E-05-9.74442E-04-2.34721E-04
 -1       160 3.71290E-06-3.86565E-04 4.58756E-07
 -1       182 7.57085E-06-1.80009E-03-2.76704E-04
 -1       183 2.09169E-10-2.27321E-03-2.88738E-04
 -1       184-7.57055E-06-1.80008E-03-2.76704E-04
 -1       185-2.13962E-11-1.63802E-03-5.21503E-04
 -1       186-9.44800E-07-1.21457E-03-5.80953E-04
 -1       187 5.21242E-11-1.11005E-03-5.88300E-04
 -1       188 9.44812E-07-1.21457E-03-5.80953E-04
 -1       189-7.79605E-12-4.63746E-04-3.44080E-04
 -1       211-1.24759E-04-2.38835E-03-1.31956E-04
 -1       212 1.04152E-05-2.02258E-03-1.96916E-06
 -1       213 1.25562E-04-2.36143E-03 1.27493E-04
 -1       214 1.11510E-05-1.74506E-03-6.24989E-06
 -1       215 2.17053E-05-9.74442E-04-2.34721E-04
 -1       216-8.07260E-06-1.00107E-03-2.82760E-06
 -1       217-2.44791E-05-9.78222E-04 2.32961E-04
 -1       218-3.71293E-06-3.86565E-04 4.58757E-07
 -1       250 3.85857E-11-2.39722E-03 1.25152E-04
 -1       251 3.88050E-06-1.51608E-03-9.85086E-07
 -1       252-8.06597E-11-1.92015E-03-1.51470E-06
 -1       253-3.88056E-06-1.51608E-03-9.85174E-07
 -1       254 6.95941E-11-2.42575E-03-1.32769E-04
 -1       255 2.40359E-11-1.69453E-03-3.02381E-06
 -1       256 5.91147E-12-9.76554E-04 2.55687E-04
 -1       257-4.07887E-06-1.12816E-03-1.13941E-06
 -1       258-1.05042E-11-1.02411E-03-1.38647E-06
 -1       259 4.07886E-06-1.12816E-03-1.13937E-06
 -1       260 1.81303E-11-9.78675E-04-2.57855E-04
 -1       261 1.06045E-11-4.34615E-04-1.74659E-07
 -3
    1PSTEP                         2           2           1          
  100CL  102 2.00000E-02          81                     1    2           1
 -4  DISP        4    1
 -5  D1          1    2    1    0
 -5  D2          1    2    2    0
 -5  D3          1    2    3    0
 -5  ALL         1    2    0    0    1ALL
 -1         5 0.00000E+00 0.00000E+00 0.00000E+00
 -1         6 0.00000E+00 0.00000E+00 0.00000E+00
 -1         7 0.00000E+00 0.00000E+00 0.00000E+00
 -1         8 0.00000E+00 0.00000E+00 0.00000E+00
 -1        21 0.00000E+00 0.00000E+00 0.00000E+00
 -1        22 0.00000E+00 0.00000E+00 0.00000E+00
 -1        23 0.00000E+00 0.00000E+00 0.00000E+00
 -1        24 0.00000E+00 0.00000E+00 0.00000E+00
 -1        25 0.00000E+00 0.00000E+00 0.00000E+00
 -1        26 0.00000E+00 0.00000E+00 0.00000E+00
 -1        27 0.00000E+00 0.00000E+00 0.00000E+00
 -1        28 0.00000E+00 0.00000E+00 0.00000E+00
 -1        29 0.00000E+00 0.00000E+00 0.00000E+00
 -1        30 0.00000E+00 0.00000E+00 0.00000E+00
 -1        31 0.00000E+00 0.00000E+00 0.00000E+00
 -1        32 0.00000E+00 0.00000E+00 0.00000E+00
 -1        44-1.51057E-04 1.60921E-03-2.33935E-04
 -1        45-3.51759E-05 1.24947E-03-3.77301E-04
 -1        46 4.14929E-05 9.13786E-04-4.32304E-04
 -1        47-5.40120E-05 3.69762E-04-2.84003E-04
 -1        48 5.40120E-05 3.69762E-04-2.84003E-04
 -1        49-4.14925E-05 9.13786E-04-4.32304E-04
 -1        50 3.51762E-05 1.24947E-03-3.77302E-04
 -1        51 1.51058E-04 1.60921E-03-2.33935E-04
 -1        74 1.49608E-04 1.61400E-03 2.34166E-04
 -1        75 3.38644E-05 1.25157E-03 3.77304E-04
 -1        76-4.06782E-05 9.12787E-04 4.32311E-04
 -1        77 5.44180E-05 3.69009E-04 2.84078E-04
 -1        89-1.49607E-04 1.61400E-03 2.34166E-04
 -1        90-3.38641E-05 1.25157E-03 3.77304E-04
 -1        91 4.06786E-05 9.12787E-04 4.32311E-04
 -1        92-5.44179E-05 3.69009E-04 2.84078E-04
 -1        98 0.00000E+00 0.00000E+00 0.00000E+00
 -1        99 0.00000E+00 0.00000E+00 0.00000E+00
 -1       100 0.00000E+00 0.00000E+00 0.00000E+00
 -1       101 0.00000E+00 0.00000E+00 0.00000E+00
 -1       102 0.00000E+00 0.00000E+00 0.00000E+00
 -1       124 4.65550E-06 1.47959E-03-2.20459E-04
 -1       125 1.90120E-10 1.76864E-03-2.31330E-04
 -1       126-4.65471E-06 1.47959E-03-2.20460E-04
 -1       127 2.51610E-10 1.30156E-03-4.17346E-04
 -1       128-3.42350E-06 9.59171E-04-4.63530E-04
 -1       129 1.05635E-10 8.89449E-04-4.72295E-04
 -1       130 3.42373E-06 9.59171E-04-4.63530E-04
 -1       131 3.22931E-11 3.75417E-04-2.76035E-04
 -1       153 1.24679E-04 1.91673E-03-1.03871E-04
 -1       154 5.46701E-07 1.69352E-03 1.04102E-07
 -1       155-1.24635E-04 1.91814E-03 1.04107E-04
 -1       156 5.85865E-07 1.40663E-03 3.28989E-07
 -1       157-2.49549E-05 7.92902E-04-1.86045E-04
 -1       158-4.24293E-07 8.09819E-04 1.48858E-07
 -1       159 2.48090E-05 7.92705E-04 1.86138E-04
 -1       160-1.94980E-07 3.08198E-04-2.40232E-08
 -1       182 4.64833E-06 1.47757E-03 2.20667E-04
 -1       183 5.83680E-10 1.77244E-03 2.31473E-04
 -1       184-4.64699E-06 1.47757E-03 2.20667E-04
 -1       185 2.83046E-10 1.30288E-03 4.17185E-04
 -1       186-3.21358E-06 9.60220E-04 4.63704E-04
 -1       187 1.09108E-10 8.89547E-04 4.72400E-04
 -1       188 3.21381E-06 9.60220E-04 4.63704E-04
 -1       189 3.29425E-11 3.75347E-04 2.76077E-04
 -1       211 1.24636E-04 1.91814E-03 1.04107E-04
 -1       212-5.46206E-07 1.69352E-03 1.03726E-07
 -1       213-1.24678E-04 1.91674E-03-1.03872E-04
 -1       214-5.85384E-07 1.40663E-03 3.28747E-07
 -1       215-2.48086E-05 7.92705E-04 1.86137E-04
 -1       216 4.24628E-07 8.09819E-04 1.48592E-07
 -1       217 2.49552E-05 7.92902E-04-1.86045E-04
 -1       218 1.95079E-07 3.08198E-04-2.41429E-08
 -1       250 2.47644E-10 1.90999E-03-1.03058E-04
 -1       251-1.98611E-07 1.20954E-03 5.18784E-08
 -1       252 3.65649E-10 1.54254E-03 7.99900E-08
 -1       253 1.99536E-07 1.20954E-03 5.21976E-08
 -1       254 2.10852E-10 1.91150E-03 1.03459E-04
 -1       255 3.23228E-10 1.37512E-03 1.59263E-07
 -1       256 1.10928E-10 7.83326E-04-2.07261E-04
 -1       257 2.13607E-07 9.13983E-04 6.00312E-08
 -1       258 9.08870E-11 8.12414E-04 7.30386E-08
 -1       259-2.13428E-07 9.13983E-04 6.01113E-08
 -1       260 1.66163E-10 7.83436E-04 2.07375E-04
 -1       261 1.65502E-11 3.48466E-04 9.14276E-09
 -3
    1PSTEP                         3           3           1          
  100CL  103 3.00000E-02          81                     1    3           1
 -4  DISP        4    1
 -5  D1          1    2    1    0
 -5  D2          1    2    2    0
 -5  D3          1    2    3    0
 -5  ALL         1    2    0    0    1ALL
 -1         5 0.00000E+00 0.00000E+00 0.00000E+00
 -1         6 0.00000E+00 0.00000E+00 0.00000E+00
 -1         7 0.00000E+00 0.00000E+00 0.00000E+00
 -1         8 0.00000E+00 0.00000E+00 0.00000E+00
 -1        21 0.00000E+00 0.00000E+00 0.00000E+00
 -1        22 0.00000E+00 0.00000E+00 0.00000E+00
 -1        23 0.00000E+00 0.00000E+00 0.00000E+00
 -1        24 0.00000E+00 0.00000E+00 0.00000E+00
 -1        25 0.00000E+00 0.00000E+00 0.00000E+00
 -1        26 0.00000E+00 0.00000E+00 0.00000E+00
 -1        27 0.00000E+00 0.00000E+00 0.00000E+00
 -1        28 0.00000E+00 0.00000E+00 0.00000E+00
 -1        29 0.00000E+00 0.00000E+00 0.00000E+00
 -1        30 0.00000E+00 0.00000E+00 0.00000E+00
 -1        31 0.00000E+00 0.00000E+00 0.00000E+00
 -1        32 0.00000E+00 0.00000E+00 0.00000E+00
 -1        44 1.21041E-04-1.27391E-03 1.85399E-04
 -1        45 2.79111E-05-9.89627E-04 2.98786E-04
 -1        46-3.30075E-05-7.24022E-04 3.42154E-04
 -1        47 4.27048E-05-2.93169E-04 2.25085E-04
 -1        48-4.27043E-05-2.93168E-04 2.25085E-04
 -1        49 3.30073E-05-7.24022E-04 3.42155E-04
 -1        50-2.79125E-05-9.89628E-04 2.98786E-04
 -1        51-1.21040E-04-1.27391E-03 1.85399E-04
 -1        74-1.20976E-04-1.27415E-03-1.85411E-04
 -1        75-2.78489E-05-9.89731E-04-2.98786E-04
 -1        76 3.29680E-05-7.23973E-04-3.42154E-04
 -1        77-4.27244E-05-2.93131E-04-2.25089E-04
 -1        89 1.20974E-04-1.27415E-03-1.85411E-04
 -1        90 2.78498E-05-9.89732E-04-2.98786E-04
 -1        91-3.29683E-05-7.23973E-04-3.42156E-04
 -1        92 4.27238E-05-2.93131E-04-2.25089E-04
 -1        98 0.00000E+00 0.00000E+00 0.00000E+00
 -1        99 0.00000E+00 0.00000E+00 0.00000E+00
 -1       100 0.00000E+00 0.00000E+00 0.00000E+00
 -1       101 0.00000E+00 0.00000E+00 0.00000E+00
 -1       102 0.00000E+00 0.00000E+00 0.00000E+00
 -1       124-4.23135E-06-1.17212E-03 1.74695E-04
 -1       125 4.91384E-09-1.40097E-03 1.83317E-04
 -1       126 4.23631E-06-1.17211E-03 1.74695E-04
 -1       127 2.65701E-10-1.03127E-03 3.30369E-04
 -1       128 2.76118E-06-7.59733E-04 3.67136E-04
 -1       129-4.52597E-10-7.04490E-04 3.74172E-04
 -1       130-2.76169E-06-7.59733E-04 3.67135E-04
 -1       131-1.72634E-10-2.97461E-04 2.18661E-04
 -1       153-9.99939E-05-1.51927E-03 8.23516E-05
 -1       154-3.05581E-08-1.34501E-03-5.75063E-09
 -1       155 9.99946E-05-1.51934E-03-8.23644E-05
 -1       156-3.03889E-08-1.11444E-03-1.68365E-08
 -1       157 2.00415E-05-6.28424E-04 1.47309E-04
 -1       158 2.20671E-08-6.41749E-04-7.69015E-09
 -1       159-2.00348E-05-6.28415E-04-1.47314E-04
 -1       160 1.01129E-08-2.44002E-04 1.25472E-09
 -1       182-4.24056E-06-1.17201E-03-1.74706E-04
 -1       183-5.77251E-09-1.40117E-03-1.83325E-04
 -1       184 4.23383E-06-1.17202E-03-1.74706E-04
 -1       185-6.35646E-10-1.03134E-03-3.30362E-04
 -1       186 2.75176E-06-7.59788E-04-3.67144E-04
 -1       187 2.31497E-10-7.04496E-04-3.74178E-04
 -1       188-2.75165E-06-7.59787E-04-3.67145E-04
 -1       189 1.41380E-10-2.97457E-04-2.18663E-04
 -1       211-9.99917E-05-1.51933E-03-8.23643E-05
 -1       212 3.01513E-08-1.34500E-03-5.59436E-09
 -1       213 9.99897E-05-1.51926E-03 8.23518E-05
 -1       214 3.00352E-08-1.11444E-03-1.66529E-08
 -1       215 2.00336E-05-6.28415E-04-1.47314E-04
 -1       216-2.23299E-08-6.41750E-04-7.47401E-09
 -1       217-2.00408E-05-6.28424E-04 1.47309E-04
 -1       218-1.01802E-08-2.44002E-04 1.33585E-09
 -1       250-1.73465E-09-1.51209E-03 8.17622E-05
 -1       251 9.85395E-09-9.57646E-04-2.85768E-09
 -1       252-1.91383E-10-1.22185E-03-4.31215E-09
 -1       253-1.04401E-08-9.57643E-04-2.95720E-09
 -1       254 1.37945E-09-1.51216E-03-8.17835E-05
 -1       255-2.65412E-10-1.08995E-03-8.51373E-09
 -1       256 6.68555E-10-6.20411E-04 1.64268E-04
 -1       257-1.09986E-08-7.24365E-04-3.20969E-09
 -1       258-4.15394E-11-6.42979E-04-3.90870E-09
 -1       259 1.08762E-08-7.24366E-04-3.29758E-09
 -1       260-8.90336E-10-6.20416E-04-1.64274E-04
 -1       261-1.75650E-11-2.75985E-04-4.77570E-10
 -3
    1PSTEP                         4           4           1          
  100CL  104 4.00000E-02          81                     1    4           1
 -4  DISP        4    1
 -5  D1          1    2    1    0
 -5  D2          1    2    2    0
 -5  D3          1    2    3    0
 -5  ALL         1    2    0    0    1ALL
 -1         5 0.00000E+00 0.00000E+00 0.00000E+00
 -1         6 0.00000E+00 0.00000E+00 0.00000E+00
 -1         7 0.00000E+00 0.00000E+00 0.00000E+00
 -1         8 0.00000E+00 0.00000E+00 0.00000E+00
 -1        21 0.00000E+00 0.00000E+00 0.00000E+00
 -1        22 0.00000E+00 0.00000E+00 0.00000E+00
 -1        23 0.00000E+00 0.00000E+00 0.00000E+00
 -1        24 0.00000E+00 0.00000E+00 0.00000E+00
 -1        25 0.00000E+00 0.00000E+00 0.00000E+00
 -1        26 0.00000E+00 0.00000E+00 0.00000E+00
 -1        27 0.00000E+00 0.00000E+00 0.00000E+00
 -1        28 0.00000E+00 0.00000E+00 0.00000E+00
 -1        29 0.00000E+00 0.00000E+00 0.00000E+00
 -1        30 0.00000E+00 0.00000E+00 0.00000E+00
 -1        31 0.00000E+00 0.00000E+00 0.00000E+00
 -1        32 0.00000E+00 0.00000E+00 0.00000E+00
 -1        44-9.40256E-05 9.88746E-04-1.43907E-04
 -1        45-2.16682E-05 7.68123E-04-2.31908E-04
 -1        46 2.56283E-05 5.61983E-04-2.65558E-04
 -1        47-3.31421E-05 2.27567E-04-1.74713E-04
 -1        48 3.31415E-05 2.27566E-04-1.74713E-04
 -1        49-2.56280E-05 5.61984E-04-2.65561E-04
 -1        50 2.16693E-05 7.68124E-04-2.31908E-04
 -1        51 9.40236E-05 9.88744E-04-1.43907E-04
 -1        74 9.40240E-05 9.88754E-04 1.43908E-04
 -1        75 2.16666E-05 7.68126E-04 2.31908E-04
 -1        76-2.56268E-05 5.61982E-04 2.65558E-04
 -1        77 3.31428E-05 2.27565E-04 1.74713E-04
 -1        89-9.40227E-05 9.88751E-04 1.43908E-04
 -1        90-2.16680E-05 7.68127E-04 2.31908E-04
 -1        91 2.56266E-05 5.61982E-04 2.65561E-04
 -1        92-3.31420E-05 2.27565E-04 1.74713E-04
 -1        98 0.00000E+00 0.00000E+00 0.00000E+00
 -1        99 0.00000E+00 0.00000E+00 0.00000E+00
 -1       100 0.00000E+00 0.00000E+00 0.00000E+00
 -1       101 0.00000E+00 0.00000E+00 0.00000E+00
 -1       102 0.00000E+00 0.00000E+00 0.00000E+00
 -1       124 3.31060E-06 9.09782E-04-1.35598E-04
 -1       125-6.83838E-09 1.08741E-03-1.42290E-04
 -1       126-3.31740E-06 9.09777E-04-1.35598E-04
 -1       127-6.39555E-10 8.00467E-04-2.56415E-04
 -1       128-2.14583E-06 5.89688E-04-2.84962E-04
 -1       129 4.72350E-10 5.46808E-04-2.90428E-04
 -1       130 2.14620E-06 5.89689E-04-2.84962E-04
 -1       131 2.26870E-10 2.30888E-04-1.69721E-04
 -1       153 7.76794E-05 1.17928E-03-6.39233E-05
 -1       154 1.11912E-09 1.04415E-03 4.07986E-10
 -1       155-7.76799E-05 1.17928E-03 6.39241E-05
 -1       156 9.77756E-10 8.65021E-04 7.45033E-10
 -1       157-1.55707E-05 4.87789E-04-1.14335E-04
 -1       158-9.89023E-10 4.98128E-04 3.17222E-10
 -1       159 1.55703E-05 4.87790E-04 1.14335E-04
 -1       160-3.68723E-10 1.89383E-04-6.08526E-11
 -1       182 3.32133E-06 9.09774E-04 1.35598E-04
 -1       183 7.09362E-09 1.08742E-03 1.42291E-04
 -1       184-3.31448E-06 9.09779E-04 1.35599E-04
 -1       185 6.04112E-10 8.00470E-04 2.56415E-04
 -1       186-2.14654E-06 5.89692E-04 2.84962E-04
 -1       187-4.56960E-10 5.46810E-04 2.90429E-04
 -1       188 2.14623E-06 5.89690E-04 2.84963E-04
 -1       189-2.47644E-10 2.30888E-04 1.69721E-04
 -1       211 7.76752E-05 1.17927E-03 6.39242E-05
 -1       212-1.31779E-09 1.04414E-03 4.66202E-10
 -1       213-7.76746E-05 1.17928E-03-6.39234E-05
 -1       214-1.02678E-09 8.65020E-04 7.64591E-10
 -1       215-1.55692E-05 4.87790E-04 1.14336E-04
 -1       216 9.87549E-10 4.98129E-04 3.13845E-10
 -1       217 1.55695E-05 4.87789E-04-1.14336E-04
 -1       218 3.65456E-10 1.89384E-04-4.74545E-11
 -1       250 1.89229E-09 1.17361E-03-6.34685E-05
 -1       251 1.30116E-09 7.43283E-04 2.70301E-10
 -1       252-1.04687E-10 9.48373E-04 3.04041E-10
 -1       253-1.51556E-09 7.43279E-04 2.35023E-10
 -1       254-2.01620E-09 1.17361E-03 6.34699E-05
 -1       255 1.41842E-11 8.46034E-04 5.10450E-10
 -1       256-9.84700E-10 4.81547E-04-1.27507E-04
 -1       257 8.25270E-11 5.62258E-04 2.28694E-10
 -1       258-3.99734E-11 4.99040E-04 2.57013E-10
 -1       259-1.20737E-10 5.62260E-04 2.30233E-10
 -1       260 9.86616E-10 4.81547E-04 1.27507E-04
 -1       261-3.61619E-12 2.14212E-04 1.62110E-11
 -3
    1PSTEP                         5           5           1          
  100CL  105 5.00000E-02          81                     1    5           1
 -4  DISP        4    1
 -5  D1          1    2    1    0
 -5  D2          1    2    2    0
 -5  D3          1    2    3    0
 -5  ALL         1    2    0    0    1ALL
 -1         5 0.00000E+00 0.00000E+00 0.00000E+00
 -1         6 0.00000E+00 0.00000E+00 0.00000E+00
 -1         7 0.00000E+00 0.00000E+00 0.00000E+00
 -1         8 0.00000E+00 0.00000E+00 0.00000E+00
 -1        21 0.00000E+00 0.00000E+00 0.00000E+00
 -1        22 0.00000E+00 0.00000E+00 0.00000E+00
 -1        23 0.00000E+00 0.00000E+00 0.00000E+00
 -1        24 0.00000E+00 0.00000E+00 0.00000E+00
 -1        25 0.00000E+00 0.00000E+00 0.00000E+00
 -1        26 0.00000E+00 0.00000E+00 0.00000E+00
 -1        27 0.00000E+00 0.00000E+00 0.00000E+00
 -1        28 0.00000E+00 0.00000E+00 0.00000E+00
 -1        29 0.00000E+00 0.00000E+00 0.00000E+00
 -1        30 0.00000E+00 0.00000E+00 0.00000E+00
 -1        31 0.00000E+00 0.00000E+00 0.00000E+00
 -1        32 0.00000E+00 0.00000E+00 0.00000E+00
 -1        44 7.09816E-05-7.46387E-04 1.08633E-04
 -1        45 1.63570E-05-5.79845E-04 1.75064E-04
 -1        46-1.93459E-05-4.24235E-04 2.00467E-04
 -1        47 2.50184E-05-1.71788E-04 1.31889E-04
 -1        48-2.50181E-05-1.71788E-04 1.31889E-04
 -1        49 1.93465E-05-4.24235E-04 2.00467E-04
 -1        50-1.63567E-05-5.79846E-04 1.75063E-04
 -1        51-7.09797E-05-7.46386E-04 1.08633E-04
 -1        74-7.09870E-05-7.46381E-04-1.08633E-04
 -1        75-1.63599E-05-5.79842E-04-1.75064E-04
 -1        76 1.93485E-05-4.24237E-04-2.00466E-04
 -1        77-2.50172E-05-1.71789E-04-1.31889E-04
 -1        89 7.09878E-05-7.46380E-04-1.08633E-04
 -1        90 1.63612E-05-5.79842E-04-1.75064E-04
 -1        91-1.93481E-05-4.24237E-04-2.00467E-04
 -1        92 2.50171E-05-1.71789E-04-1.31889E-04
 -1        98 0.00000E+00 0.00000E+00 0.00000E+00
 -1        99 0.00000E+00 0.00000E+00 0.00000E+00
 -1       100 0.00000E+00 0.00000E+00 0.00000E+00
 -1       101 0.00000E+00 0.00000E+00 0.00000E+00
 -1       102 0.00000E+00 0.00000E+00 0.00000E+00
 -1       124-2.50182E-06-6.86781E-04 1.02360E-04
 -1       125 2.73819E-09-8.20868E-04 1.07412E-04
 -1       126 2.50629E-06-6.86780E-04 1.02360E-04
 -1       127 5.17098E-10-6.04261E-04 1.93563E-04
 -1       128 1.62034E-06-4.45148E-04 2.15114E-04
 -1       129 1.46973E-10-4.12779E-04 2.19241E-04
 -1       130-1.62010E-06-4.45148E-04 2.15114E-04
 -1       131 1.43355E-12-1.74294E-04 1.28120E-04
 -1       153-5.86404E-05-8.90227E-04 4.82548E-05
 -1       154-8.65280E-10-7.88227E-04 2.61979E-11
 -1       155 5.86440E-05-8.90225E-04-4.82545E-05
 -1       156 4.48303E-10-6.52994E-04 4.61507E-10
 -1       157 1.17548E-05-3.68226E-04 8.63101E-05
 -1       158 3.66602E-10-3.76031E-04 3.28832E-10
 -1       159-1.17548E-05-3.68227E-04-8.63098E-05
 -1       160 9.02941E-11-1.42962E-04 1.11832E-10
 -1       182-2.50625E-06-6.86782E-04-1.02360E-04
 -1       183-9.50451E-10-8.20867E-04-1.07413E-04
 -1       184 2.50591E-06-6.86783E-04-1.02360E-04
 -1       185 2.30543E-10-6.04262E-04-1.93564E-04
 -1       186 1.62116E-06-4.45148E-04-2.15114E-04
 -1       187 3.73698E-10-4.12779E-04-2.19241E-04
 -1       188-1.62064E-06-4.45148E-04-2.15114E-04
 -1       189 7.84933E-11-1.74294E-04-1.28120E-04
 -1       211-5.86417E-05-8.90223E-04-4.82550E-05
 -1       212 2.23484E-09-7.88223E-04-3.06444E-10
 -1       213 5.86404E-05-8.90224E-04 4.82544E-05
 -1       214 4.62305E-10-6.52993E-04 6.26008E-11
 -1       215 1.17549E-05-3.68227E-04-8.63104E-05
 -1       216 7.31673E-11-3.76031E-04-1.25233E-10
 -1       217-1.17539E-05-3.68227E-04 8.63099E-05
 -1       218 2.79978E-12-1.42962E-04-5.77241E-11
 -1       250-1.20891E-10-8.85939E-04 4.79114E-05
 -1       251 9.08709E-10-5.61090E-04-1.91767E-10
 -1       252 3.68412E-10-7.15914E-04-4.03318E-11
 -1       253 3.77882E-10-5.61088E-04-4.85689E-11
 -1       254 1.04192E-09-8.85939E-04-4.79116E-05
 -1       255 5.38676E-10-6.38663E-04-1.21650E-10
 -1       256 5.09926E-10-3.63513E-04 9.62534E-05
 -1       257 1.53662E-10-4.24443E-04-1.63352E-10
 -1       258 1.01886E-10-3.76716E-04-5.33071E-11
 -1       259 1.00945E-10-4.24443E-04 4.90094E-11
 -1       260-5.67186E-11-3.63513E-04-9.62534E-05
 -1       261 4.78525E-11-1.61706E-04-1.25417E-11
 -3
    1PSTEP                         6           6           1          
  100CL  106 6.00000E-02          81                     1    6           1
 -4  DISP        4    1
 -5  D1          1    2    1    0
 -5  D2          1    2    2    0
 -5  D3          1    2    3    0
 -5  ALL         1    2    0    0    1ALL
 -1         5 0.00000E+00 0.00000E+00 0.00000E+00
 -1         6 0.00000E+00 0.00000E+00 0.00000E+00
 -1         7 0.00000E+00 0.00000E+00 0.00000E+00
 -1         8 0.00000E+00 0.00000E+00 0.00000E+00
 -1        21 0.00000E+00 0.00000E+00 0.00000E+00
 -1        22 0.00000E+00 0.00000E+00 0.00000E+00
 -1        23 0.00000E+00 0.00000E+00 0.00000E+00
 -1        24 0.00000E+00 0.00000E+00 0.00000E+00
 -1        25 0.00000E+00 0.00000E+00 0.00000E+00
 -1        26 0.00000E+00 0.00000E+00 0.00000E+00
 -1        27 0.00000E+00 0.00000E+00 0.00000E+00
 -1        28 0.00000E+00 0.00000E+00 0.00000E+00
 -1        29 0.00000E+00 0.00000E+00 0.00000E+00
 -1        30 0.00000E+00 0.00000E+00 0.00000E+00
 -1        31 0.00000E+00 0.00000E+00 0.00000E+00
 -1        32 0.00000E+00 0.00000E+00 0.00000E+00
 -1        44-5.14733E-05 5.41229E-04-7.87723E-05
 -1        45-1.18610E-05 4.20464E-04-1.26944E-04
 -1        46 1.40289E-05 3.07626E-04-1.45364E-04
 -1        47-1.81415E-05 1.24569E-04-9.56368E-05