    1C
    1UUSER                                                              
    1UDATE              09.july.2018                                    
    1UTIME              11:06:14                                        
    1UHOST                                                              
    1UPGM               CalculiX                                        
    1UVERSION           Version 2.13                             
    1UCOMPILETIME       jue jun 14 00:40:39 CEST 2018                    
    1UDIR                                                               
    1UDBN                                                               
    1UMAT    1EL                                                        
    2C                           201                                     1
 -1         1 0.00000E+00 0.00000E+00 0.00000E+00
 -1         2 1.00000E+00 0.00000E+00 0.00000E+00
 -1         3 1.00000E+00 1.00000E+00 0.00000E+00
 -1         4 0.00000E+00 1.00000E+00 0.00000E+00
 -1         9 2.50000E-01 0.00000E+00 0.00000E+00
 -1        10 5.00000E-01 0.00000E+00 0.00000E+00
 -1        11 7.50000E-01 0.00000E+00 0.00000E+00
 -1        12 1.00000E+00 2.50000E-01 0.00000E+00
 -1        13 1.00000E+00 5.00000E-01 0.00000E+00
 -1        14 1.00000E+00 7.50000E-01 0.00000E+00
 -1        15 7.50000E-01 1.00000E+00 0.00000E+00
 -1        16 5.00000E-01 1.00000E+00 0.00000E+00
 -1        17 2.50000E-01 1.00000E+00 0.00000E+00
 -1        18 0.00000E+00 7.50000E-01 0.00000E+00
 -1        19 0.00000E+00 5.00000E-01 0.00000E+00
 -1        20 0.00000E+00 2.50000E-01 0.00000E+00
 -1        33 1.00000E+00 0.00000E+00 5.00000E-01
 -1        34 1.00000E+00 0.00000E+00 1.00000E+00
 -1        35 1.00000E+00 0.00000E+00 1.50000E+00
 -1        36 1.00000E+00 0.00000E+00 2.00000E+00
 -1        37 1.00000E+00 0.00000E+00 2.50000E+00
 -1        38 1.00000E+00 0.00000E+00 3.00000E+00
 -1        39 1.00000E+00 0.00000E+00 3.50000E+00
 -1        40 1.00000E+00 0.00000E+00 4.00000E+00
 -1        41 1.00000E+00 0.00000E+00 4.50000E+00
 -1        42 1.00000E+00 0.00000E+00 5.00000E+00
 -1        43 1.00000E+00 0.00000E+00 5.50000E+00
 -1        44 1.00000E+00 0.00000E+00 6.00000E+00
 -1        51 0.00000E+00 0.00000E+00 6.00000E+00
 -1        52 0.00000E+00 0.00000E+00 5.50000E+00
 -1        53 0.00000E+00 0.00000E+00 5.00000E+00
 -1        54 0.00000E+00 0.00000E+00 4.50000E+00
 -1        55 0.00000E+00 0.00000E+00 4.00000E+00
 -1        56 0.00000E+00 0.00000E+00 3.50000E+00
 -1        57 0.00000E+00 0.00000E+00 3.00000E+00
 -1        58 0.00000E+00 0.00000E+00 2.50000E+00
 -1        59 0.00000E+00 0.00000E+00 2.00000E+00
 -1        60 0.00000E+00 0.00000E+00 1.50000E+00
 -1        61 0.00000E+00 0.00000E+00 1.00000E+00
 -1        62 0.00000E+00 0.00000E+00 5.00000E-01
 -1        63 1.00000E+00 1.00000E+00 5.00000E-01
 -1        64 1.00000E+00 1.00000E+00 1.00000E+00
 -1        65 1.00000E+00 1.00000E+00 1.50000E+00
 -1        66 1.00000E+00 1.00000E+00 2.00000E+00
 -1        67 1.00000E+00 1.00000E+00 2.50000E+00
 -1        68 1.00000E+00 1.00000E+00 3.00000E+00
 -1        69 1.00000E+00 1.00000E+00 3.50000E+00
 -1        70 1.00000E+00 1.00000E+00 4.00000E+00
 -1        71 1.00000E+00 1.00000E+00 4.50000E+00
 -1        72 1.00000E+00 1.00000E+00 5.00000E+00
 -1        73 1.00000E+00 1.00000E+00 5.50000E+00
 -1        74 1.00000E+00 1.00000E+00 6.00000E+00
 -1        78 0.00000E+00 1.00000E+00 5.00000E-01
 -1        79 0.00000E+00 1.00000E+00 1.00000E+00
 -1        80 0.00000E+00 1.00000E+00 1.50000E+00
 -1        81 0.00000E+00 1.00000E+00 2.00000E+00
 -1        82 0.00000E+00 1.00000E+00 2.50000E+00
 -1        83 0.00000E+00 1.00000E+00 3.00000E+00
 -1        84 0.00000E+00 1.00000E+00 3.50000E+00
 -1        85 0.00000E+00 1.00000E+00 4.00000E+00
 -1        86 0.00000E+00 1.00000E+00 4.50000E+00
 -1        87 0.00000E+00 1.00000E+00 5.00000E+00
 -1        88 0.00000E+00 1.00000E+00 5.50000E+00
 -1        89 0.00000E+00 1.00000E+00 6.00000E+00
 -1        93 5.00000E-01 2.50000E-01 0.00000E+00
 -1        94 2.50000E-01 5.00000E-01 0.00000E+00
 -1        95 5.00000E-01 5.00000E-01 0.00000E+00
 -1        96 7.50000E-01 5.00000E-01 0.00000E+00
 -1        97 5.00000E-01 7.50000E-01 0.00000E+00
 -1       103 5.00000E-01 0.00000E+00 5.00000E-01
 -1       104 2.50000E-01 0.00000E+00 1.00000E+00
 -1       105 5.00000E-01 0.00000E+00 1.00000E+00
 -1       106 7.50000E-01 0.00000E+00 1.00000E+00
 -1       107 5.00000E-01 0.00000E+00 1.50000E+00
 -1       108 2.50000E-01 0.00000E+00 2.00000E+00
 -1       109 5.00000E-01 0.00000E+00 2.00000E+00
 -1       110 7.50000E-01 0.00000E+00 2.00000E+00
 -1       111 5.00000E-01 0.00000E+00 2.50000E+00
 -1       112 2.50000E-01 0.00000E+00 3.00000E+00
 -1       113 5.00000E-01 0.00000E+00 3.00000E+00
 -1       114 7.50000E-01 0.00000E+00 3.00000E+00
 -1       115 5.00000E-01 0.00000E+00 3.50000E+00
 -1       116 2.50000E-01 0.00000E+00 4.00000E+00
 -1       117 5.00000E-01 0.00000E+00 4.00000E+00
 -1       118 7.50000E-01 0.00000E+00 4.00000E+00
 -1       119 5.00000E-01 0.00000E+00 4.50000E+00
 -1       120 2.50000E-01 0.00000E+00 5.00000E+00
 -1       121 5.00000E-01 0.00000E+00 5.00000E+00
 -1       122 7.50000E-01 0.00000E+00 5.00000E+00
 -1       123 5.00000E-01 0.00000E+00 5.50000E+00
 -1       124 2.50000E-01 0.00000E+00 6.00000E+00
 -1       125 5.00000E-01 0.00000E+00 6.00000E+00
 -1       126 7.50000E-01 0.00000E+00 6.00000E+00
 -1       132 1.00000E+00 5.00000E-01 5.00000E-01
 -1       133 1.00000E+00 2.50000E-01 1.00000E+00
 -1       134 1.00000E+00 5.00000E-01 1.00000E+00
 -1       135 1.00000E+00 7.50000E-01 1.00000E+00
 -1       136 1.00000E+00 5.00000E-01 1.50000E+00
 -1       137 1.00000E+00 2.50000E-01 2.00000E+00
 -1       138 1.00000E+00 5.00000E-01 2.00000E+00
 -1       139 1.00000E+00 7.50000E-01 2.00000E+00
 -1       140 1.00000E+00 5.00000E-01 2.50000E+00
 -1       141 1.00000E+00 2.50000E-01 3.00000E+00
 -1       142 1.00000E+00 5.00000E-01 3.00000E+00
 -1       143 1.00000E+00 7.50000E-01 3.00000E+00
 -1       144 1.00000E+00 5.00000E-01 3.50000E+00
 -1       145 1.00000E+00 2.50000E-01 4.00000E+00
 -1       146 1.00000E+00 5.00000E-01 4.00000E+00
 -1       147 1.00000E+00 7.50000E-01 4.00000E+00
 -1       148 1.00000E+00 5.00000E-01 4.50000E+00
 -1       149 1.00000E+00 2.50000E-01 5.00000E+00
 -1       150 1.00000E+00 5.00000E-01 5.00000E+00
 -1       151 1.00000E+00 7.50000E-01 5.00000E+00
 -1       152 1.00000E+00 5.00000E-01 5.50000E+00
 -1       153 1.00000E+00 2.50000E-01 6.00000E+00
 -1       154 1.00000E+00 5.00000E-01 6.00000E+00
 -1       155 1.00000E+00 7.50000E-01 6.00000E+00
 -1       161 5.00000E-01 1.00000E+00 5.00000E-01
 -1       162 7.50000E-01 1.00000E+00 1.00000E+00
 -1       163 5.00000E-01 1.00000E+00 1.00000E+00
 -1       164 2.50000E-01 1.00000E+00 1.00000E+00
 -1       165 5.00000E-01 1.00000E+00 1.50000E+00
 -1       166 7.50000E-01 1.00000E+00 2.00000E+00
 -1       167 5.00000E-01 1.00000E+00 2.00000E+00
 -1       168 2.50000E-01 1.00000E+00 2.00000E+00
 -1       169 5.00000E-01 1.00000E+00 2.50000E+00
 -1       170 7.50000E-01 1.00000E+00 3.00000E+00
 -1       171 5.00000E-01 1.00000E+00 3.00000E+00
 -1       172 2.50000E-01 1.00000E+00 3.00000E+00
 -1       173 5.00000E-01 1.00000E+00 3.50000E+00
 -1       174 7.50000E-01 1.00000E+00 4.00000E+00
 -1       175 5.00000E-01 1.00000E+00 4.00000E+00
 -1       176 2.50000E-01 1.00000E+00 4.00000E+00
 -1       177 5.00000E-01 1.00000E+00 4.50000E+00
 -1       178 7.50000E-01 1.00000E+00 5.00000E+00
 -1       179 5.00000E-01 1.00000E+00 5.00000E+00
 -1       180 2.50000E-01 1.00000E+00 5.00000E+00
 -1       181 5.00000E-01 1.00000E+00 5.50000E+00
 -1       182 7.50000E-01 1.00000E+00 6.00000E+00
 -1       183 5.00000E-01 1.00000E+00 6.00000E+00
 -1       184 2.50000E-01 1.00000E+00 6.00000E+00
 -1       190 0.00000E+00 5.00000E-01 5.00000E-01
 -1       191 0.00000E+00 7.50000E-01 1.00000E+00
 -1       192 0.00000E+00 5.00000E-01 1.00000E+00
 -1       193 0.00000E+00 2.50000E-01 1.00000E+00
 -1       194 0.00000E+00 5.00000E-01 1.50000E+00
 -1       195 0.00000E+00 7.50000E-01 2.00000E+00
 -1       196 0.00000E+00 5.00000E-01 2.00000E+00
 -1       197 0.00000E+00 2.50000E-01 2.00000E+00
 -1       198 0.00000E+00 5.00000E-01 2.50000E+00
 -1       199 0.00000E+00 7.50000E-01 3.00000E+00
 -1       200 0.00000E+00 5.00000E-01 3.00000E+00
 -1       201 0.00000E+00 2.50000E-01 3.00000E+00
 -1       202 0.00000E+00 5.00000E-01 3.50000E+00
 -1       203 0.00000E+00 7.50000E-01 4.00000E+00
 -1       204 0.00000E+00 5.00000E-01 4.00000E+00
 -1       205 0.00000E+00 2.50000E-01 4.00000E+00
 -1       206 0.00000E+00 5.00000E-01 4.50000E+00
 -1       207 0.00000E+00 7.50000E-01 5.00000E+00
 -1       208 0.00000E+00 5.00000E-01 5.00000E+00
 -1       209 0.00000E+00 2.50000E-01 5.00000E+00
 -1       210 0.00000E+00 5.00000E-01 5.50000E+00
 -1       211 0.00000E+00 7.50000E-01 6.00000E+00
 -1       212 0.00000E+00 5.00000E-01 6.00000E+00
 -1       213 0.00000E+00 2.50000E-01 6.00000E+00
 -1       219 5.00000E-01 5.00000E-01 5.00000E-01
 -1       220 5.00000E-01 2.50000E-01 1.00000E+00
 -1       221 2.50000E-01 5.00000E-01 1.00000E+00
 -1       222 5.00000E-01 5.00000E-01 1.00000E+00
 -1       223 7.50000E-01 5.00000E-01 1.00000E+00
 -1       224 5.00000E-01 7.50000E-01 1.00000E+00
 -1       225 5.00000E-01 5.00000E-01 1.50000E+00
 -1       226 5.00000E-01 2.50000E-01 2.00000E+00
 -1       227 2.50000E-01 5.00000E-01 2.00000E+00
 -1       228 5.00000E-01 5.00000E-01 2.00000E+00
 -1       229 7.50000E-01 5.00000E-01 2.00000E+00
 -1       230 5.00000E-01 7.50000E-01 2.00000E+00
 -1       231 5.00000E-01 5.00000E-01 2.50000E+00
 -1       232 5.00000E-01 2.50000E-01 3.00000E+00
 -1       233 2.50000E-01 5.00000E-01 3.00000E+00
 -1       234 5.00000E-01 5.00000E-01 3.00000E+00
 -1       235 7.50000E-01 5.00000E-01 3.00000E+00
 -1       236 5.00000E-01 7.50000E-01 3.00000E+00
 -1       237 5.00000E-01 5.00000E-01 3.50000E+00
 -1       238 5.00000E-01 2.50000E-01 4.00000E+00
 -1       239 2.50000E-01 5.00000E-01 4.00000E+00
 -1       240 5.00000E-01 5.00000E-01 4.00000E+00
 -1       241 7.50000E-01 5.00000E-01 4.00000E+00
 -1       242 5.00000E-01 7.50000E-01 4.00000E+00
 -1       243 5.00000E-01 5.00000E-01 4.50000E+00
 -1       244 5.00000E-01 2.50000E-01 5.00000E+00
 -1       245 2.50000E-01 5.00000E-01 5.00000E+00
 -1       246 5.00000E-01 5.00000E-01 5.00000E+00
 -1       247 7.50000E-01 5.00000E-01 5.00000E+00
 -1       248 5.00000E-01 7.50000E-01 5.00000E+00
 -1       249 5.00000E-01 5.00000E-01 5.50000E+00
 -1       250 5.00000E-01 2.50000E-01 6.00000E+00
 -1       251 2.50000E-01 5.00000E-01 6.00000E+00
 -1       252 5.00000E-01 5.00000E-01 6.00000E+00
 -1       253 7.50000E-01 5.00000E-01 6.00000E+00
 -1       254 5.00000E-01 7.50000E-01 6.00000E+00
 -3
    3C                            24                                     1
 -1         1    4    0    1
 -2         1        10        95        19        61       105       222       192         9        93
 -2        94        20        62       103       219       190       104       220       221       193
 -1         2    4    0    1
 -2        10         2        13        95       105        34       134       222        11        12
 -2        96        93       103        33       132       219       106       133       223       220
 -1         3    4    0    1
 -2        19        95        16         4       192       222       163        79        94        97
 -2        17        18       190       219       161        78       221       224       164       191
 -1         4    4    0    1
 -2        95        13         3        16       222       134        64       163        96        14
 -2        15        97       219       132        63       161       223       135       162       224
 -1         5    4    0    1
 -2        61       105       222       192        59       109       228       196       104       220
 -2       221       193        60       107       225       194       108       226       227       197
 -1         6    4    0    1
 -2       105        34       134       222       109        36       138       228       106       133
 -2       223       220       107        35       136       225       110       137       229       226
 -1         7    4    0    1
 -2       192       222       163        79       196       228       167        81       221       224
 -2       164       191       194       225       165        80       227       230       168       195
 -1         8    4    0    1
 -2       222       134        64       163       228       138        66       167       223       135
 -2       162       224       225       136        65       165       229       139       166       230
 -1         9    4    0    1
 -2        59       109       228       196        57       113       234       200       108       226
 -2       227       197        58       111       231       198       112       232       233       201
 -1        10    4    0    1
 -2       109        36       138       228       113        38       142       234       110       137
 -2       229       226       111        37       140       231       114       141       235       232
 -1        11    4    0    1
 -2       196       228       167        81       200       234       171        83       227       230
 -2       168       195       198       231       169        82       233       236       172       199
 -1        12    4    0    1
 -2       228       138        66       167       234       142        68       171       229       139
 -2       166       230       231       140        67       169       235       143       170       236
 -1        13    4    0    1
 -2        57       113       234       200        55       117       240       204       112       232
 -2       233       201        56       115       237       202       116       238       239       205
 -1        14    4    0    1
 -2       113        38       142       234       117        40       146       240       114       141
 -2       235       232       115        39       144       237       118       145       241       238
 -1        15    4    0    1
 -2       200       234       171        83       204       240       175        85       233       236
 -2       172       199       202       237       173        84       239       242       176       203
 -1        16    4    0    1
 -2       234       142        68       171       240       146        70       175       235       143
 -2       170       236       237       144        69       173       241       147       174       242
 -1        17    4    0    1
 -2        55       117       240       204        53       121       246       208       116       238
 -2       239       205        54       119       243       206       120       244       245       209
 -1        18    4    0    1
 -2       117        40       146       240       121        42       150       246       118       145
 -2       241       238       119        41       148       243       122       149       247       244
 -1        19    4    0    1
 -2       204       240       175        85       208       246       179        87       239       242
 -2       176       203       206       243       177        86       245       248       180       207
 -1        20    4    0    1
 -2       240       146        70       175       246       150        72       179       241       147
 -2       174       242       243       148        71       177       247       151       178       248
 -1        21    4    0    1
 -2        53       121       246       208        51       125       252       212       120       244
 -2       245       209        52       123       249       210       124       250       251       213
 -1        22    4    0    1
 -2       121        42       150       246       125        44       154       252       122       149
 -2       247       244       123        43       152       249       126       153       253       250
 -1        23    4    0    1
 -2       208       246       179        87       212       252       183        89       245       248
 -2       180       207       210       249       181        88       251       254       184       211
 -1        24    4    0    1
 -2       246       150        72       179       252       154        74       183       247       151
 -2       178       248       249       152        73       181       253       155       182       254
 -3
    1PSTEP                         1           1           1          
  100CL  101 1.00000E-02         201                     1    1           1
 -4  DISP        4    1
 -5  D1          1    2    1    0
 -5  D2          1    2    2    0
 -5  D3          1    2    3    0
 -5  ALL         1    2    0    0    1ALL
 -1         1 0.00000E+00 0.00000E+00 0.00000E+00
 -1         2 0.00000E+00 0.00000E+00 0.00000E+00
 -1         3 0.00000E+00 0.00000E+00 0.00000E+00
 -1         4 0.00000E+00 0.00000E+00 0.00000E+00
 -1         9 0.00000E+00 0.00000E+00 0.00000E+00
 -1        10 0.00000E+00 0.00000E+00 0.00000E+00
 -1        11 0.00000E+00 0.00000E+00 0.00000E+00
 -1        12 0.00000E+00 0.00000E+00 0.00000E+00
 -1        13 0.00000E+00 0.00000E+00 0.00000E+00
 -1        14 0.00000E+00 0.00000E+00 0.00000E+00
 -1        15 0.00000E+00 0.00000E+00 0.00000E+00
 -1        16 0.00000E+00 0.00000E+00 0.00000E+00
 -1        17 0.00000E+00 0.00000E+00 0.00000E+00
 -1        18 0.00000E+00 0.00000E+00 0.00000E+00
 -1        19 0.00000E+00 0.00000E+00 0.00000E+00
 -1        20 0.00000E+00 0.00000E+00 0.00000E+00
 -1        33 3.97375E-05-9.81183E-05-1.27838E-04
 -1        34 1.92726E-05-3.03456E-04-2.33146E-04
 -1        35 1.58578E-05-6.10679E-04-3.01428E-04
 -1        36 5.51732E-06-9.60219E-04-3.35606E-04
 -1        37-5.02839E-06-1.32878E-03-3.38127E-04
 -1        38-1.62151E-05-1.69544E-03-3.12665E-04
 -1        39-2.59410E-05-1.99699E-03-2.31424E-04
 -1        40-1.88925E-05-2.21385E-03-1.17129E-04
 -1        41-4.09951E-05-2.25279E-03-2.78595E-05
 -1        42-5.24602E-05-2.32437E-03-2.52299E-05
 -1        43 4.60384E-05-2.11742E-03 9.10836E-05
 -1        44 1.55209E-04-2.02152E-03 2.88892E-04
 -1        51-1.55232E-04-2.02153E-03 2.88909E-04
 -1        52-4.60713E-05-2.11742E-03 9.10952E-05
 -1        53 5.24167E-05-2.32437E-03-2.52263E-05
 -1        54 4.09530E-05-2.25279E-03-2.78588E-05
 -1        55 1.88500E-05-2.21385E-03-1.17130E-04
 -1        56 2.59029E-05-1.99699E-03-2.31428E-04
 -1        57 1.61820E-05-1.69544E-03-3.12671E-04
 -1        58 5.00234E-06-1.32878E-03-3.38133E-04
 -1        59-5.53634E-06-9.60219E-04-3.35613E-04
 -1        60-1.58699E-05-6.10679E-04-3.01434E-04
 -1        61-1.92787E-05-3.03456E-04-2.33151E-04
 -1        62-3.97395E-05-9.81191E-05-1.27841E-04
 -1        63-3.96259E-05-9.79540E-05 1.27511E-04
 -1        64-1.92614E-05-3.03403E-04 2.32443E-04
 -1        65-1.56481E-05-6.10630E-04 3.00442E-04
 -1        66-5.51604E-06-9.60827E-04 3.34292E-04
 -1        67 4.99586E-06-1.32786E-03 3.36502E-04
 -1        68 1.55841E-05-1.69552E-03 3.10252E-04
 -1        69 2.73957E-05-1.99795E-03 2.28876E-04
 -1        70 2.09804E-05-2.22240E-03 1.14719E-04
 -1        71 3.63456E-05-2.24140E-03 2.48714E-05
 -1        72 3.70465E-05-2.29991E-03 1.85534E-05
 -1        73-2.15633E-05-2.15602E-03-9.88582E-05
 -1        74-1.31552E-04-2.10967E-03-2.93290E-04
 -1        78 3.96239E-05-9.79532E-05 1.27508E-04
 -1        79 1.92553E-05-3.03403E-04 2.32438E-04
 -1        80 1.56360E-05-6.10630E-04 3.00436E-04
 -1        81 5.49697E-06-9.60827E-04 3.34286E-04
 -1        82-5.02196E-06-1.32786E-03 3.36495E-04
 -1        83-1.56173E-05-1.69552E-03 3.10247E-04
 -1        84-2.74339E-05-1.99795E-03 2.28872E-04
 -1        85-2.10229E-05-2.22240E-03 1.14717E-04
 -1        86-3.63877E-05-2.24140E-03 2.48721E-05
 -1        87-3.70903E-05-2.29991E-03 1.85569E-05
 -1        88 2.15304E-05-2.15602E-03-9.88465E-05
 -1        89 1.31529E-04-2.10966E-03-2.93273E-04
 -1        93 0.00000E+00 0.00000E+00 0.00000E+00
 -1        94 0.00000E+00 0.00000E+00 0.00000E+00
 -1        95 0.00000E+00 0.00000E+00 0.00000E+00
 -1        96 0.00000E+00 0.00000E+00 0.00000E+00
 -1        97 0.00000E+00 0.00000E+00 0.00000E+00
 -1       103-7.54848E-10-1.14645E-04-1.25412E-04
 -1       104-9.60244E-06-3.14937E-04-2.37148E-04
 -1       105-2.98386E-09-3.16490E-04-2.38717E-04
 -1       106 9.59652E-06-3.14937E-04-2.37146E-04
 -1       107-5.96326E-09-6.17545E-04-3.03162E-04
 -1       108-2.34830E-06-9.61667E-04-3.37804E-04
 -1       109-9.45089E-09-9.65837E-04-3.38165E-04
 -1       110 2.32935E-06-9.61667E-04-3.37801E-04
 -1       111-1.31231E-08-1.32425E-03-3.39192E-04
 -1       112 6.46430E-06-1.69763E-03-3.17223E-04
 -1       113-1.63759E-08-1.69082E-03-3.17634E-04
 -1       114-6.49729E-06-1.69763E-03-3.17220E-04
 -1       115-1.93561E-08-1.98386E-03-2.36317E-04
 -1       116 1.55690E-05-2.19153E-03-1.14348E-04
 -1       117-2.06596E-08-2.22478E-03-1.12276E-04
 -1       118-1.56109E-05-2.19153E-03-1.14347E-04
 -1       119-2.19591E-08-2.21851E-03-1.24663E-05
 -1       120 2.95804E-06-2.38255E-03-3.23461E-05
 -1       121-1.97450E-08-2.29088E-03-4.54929E-05
 -1       122-3.00004E-06-2.38255E-03-3.23489E-05
 -1       123-1.79637E-08-2.17528E-03 3.52229E-05
 -1       124 8.66259E-06-1.83870E-03 2.72834E-04
 -1       125-6.35143E-09-2.20244E-03 2.86229E-04
 -1       126-8.67931E-06-1.83869E-03 2.72829E-04
 -1       132 6.73560E-08-7.47419E-05-1.52852E-07
 -1       133 9.96645E-06-2.96151E-04-1.10049E-04
 -1       134 8.13314E-08-2.99234E-04-2.75614E-07
 -1       135-9.90135E-06-2.96161E-04 1.09399E-04
 -1       136-1.96906E-08-6.00285E-04-5.31976E-07
 -1       137 1.99505E-06-9.60787E-04-1.64430E-04
 -1       138 4.12857E-08-9.58707E-04-7.00459E-07
 -1       139-1.90494E-06-9.60946E-04 1.63144E-04
 -1       140 1.44958E-07-1.33327E-03-8.80473E-07
 -1       141-4.96175E-06-1.68727E-03-1.45888E-04
 -1       142 4.99919E-07-1.68791E-03-5.03021E-07
 -1       143 5.01087E-06-1.68787E-03 1.43957E-04
 -1       144-8.45280E-07-2.02117E-03-1.21397E-06
 -1       145-2.20123E-05-2.24184E-03-6.68549E-05
 -1       146-1.24283E-06-2.21260E-03-2.34624E-06
 -1       147 2.17655E-05-2.24409E-03 6.38463E-05
 -1       148 2.50560E-06-2.26739E-03-2.27164E-06
 -1       149 2.53011E-05-2.15290E-03 2.00672E-06
 -1       150 7.94008E-06-2.15744E-03-2.71330E-07
 -1       151-2.57790E-05-2.14664E-03-6.51246E-06
 -1       152-1.18536E-05-2.31132E-03 1.02123E-06
 -1       153-1.26477E-04-2.36387E-03 1.27503E-04
 -1       154-1.13455E-05-2.02525E-03-1.93266E-06
 -1       155 1.26955E-04-2.38727E-03-1.32130E-04
 -1       161-7.60571E-10-1.14530E-04 1.25055E-04
 -1       162-9.57765E-06-3.14875E-04 2.36500E-04
 -1       163-2.99400E-09-3.16257E-04 2.38026E-04
 -1       164 9.57170E-06-3.14874E-04 2.36498E-04
 -1       165-5.97990E-09-6.17548E-04 3.02194E-04
 -1       166-2.40924E-06-9.61418E-04 3.36449E-04
 -1       167-9.47026E-09-9.65445E-04 3.37119E-04
 -1       168 2.39024E-06-9.61418E-04 3.36446E-04
 -1       169-1.31515E-08-1.32434E-03 3.37205E-04
 -1       170 6.47282E-06-1.69760E-03 3.15294E-04
 -1       171-1.64028E-08-1.68786E-03 3.15146E-04
 -1       172-6.50588E-06-1.69760E-03 3.15291E-04
 -1       173-1.93970E-08-1.98580E-03 2.33973E-04
 -1       174 1.54123E-05-2.18602E-03 1.11175E-04
 -1       175-2.06869E-08-2.21700E-03 1.11206E-04
 -1       176-1.54542E-05-2.18602E-03 1.11174E-04
 -1       177-2.20184E-08-2.21449E-03 8.14106E-06
 -1       178-4.75648E-07-2.39160E-03 2.83901E-05
 -1       179-1.97650E-08-2.27350E-03 3.88896E-05
 -1       180 4.33533E-07-2.39160E-03 2.83929E-05
 -1       181-1.80258E-08-2.19399E-03-4.32734E-05
 -1       182 5.07585E-06-1.80119E-03-2.76917E-04
 -1       183-6.21791E-09-2.27406E-03-2.88682E-04
 -1       184-5.09255E-06-1.80119E-03-2.76912E-04
 -1       190-6.96388E-08-7.47419E-05-1.55328E-07
 -1       191 9.89502E-06-2.96161E-04 1.09394E-04
 -1       192-8.77268E-08-2.99234E-04-2.80340E-07
 -1       193-9.97277E-06-2.96151E-04-1.10054E-04
 -1       194 7.49858E-09-6.00285E-04-5.37865E-07
 -1       195 1.88574E-06-9.60946E-04 1.63138E-04
 -1       196-6.06117E-08-9.58707E-04-7.07050E-07
 -1       197-2.01423E-06-9.60787E-04-1.64437E-04
 -1       198-1.70773E-07-1.33327E-03-8.86895E-07
 -1       199-5.04415E-06-1.68787E-03 1.43952E-04
 -1       200-5.33423E-07-1.68791E-03-5.08979E-07
 -1       201 4.92851E-06-1.68727E-03-1.45894E-04
 -1       202 8.07723E-07-2.02117E-03-1.21758E-06
 -1       203-2.18086E-05-2.24409E-03 6.38444E-05
 -1       204 1.19923E-06-2.21260E-03-2.34789E-06
 -1       205 2.19693E-05-2.24184E-03-6.68568E-05
 -1       206-2.54579E-06-2.26739E-03-2.27125E-06
 -1       207 2.57341E-05-2.14664E-03-6.50980E-06
 -1       208-7.98694E-06-2.15744E-03-2.71165E-07
 -1       209-2.53459E-05-2.15290E-03 2.00942E-06
 -1       210 1.18221E-05-2.31132E-03 1.03625E-06
 -1       211-1.26985E-04-2.38727E-03-1.32113E-04
 -1       212 1.13094E-05-2.02525E-03-1.91145E-06
 -1       213 1.26447E-04-2.36387E-03 1.27520E-04
 -1       219-9.23265E-10-9.09674E-05-1.37524E-07
 -1       220-3.06814E-09-3.08040E-04-1.13567E-04
 -1       221-4.26288E-08-3.09982E-04-3.50272E-07
 -1       222-3.06126E-09-3.10383E-04-3.65166E-07
 -1       223 3.64623E-08-3.09982E-04-3.48032E-07
 -1       224-3.07323E-09-3.07909E-04 1.12897E-04
 -1       225-6.07094E-09-6.07953E-04-4.93141E-07
 -1       226-9.40888E-09-9.64068E-04-1.67006E-04
 -1       227-4.47914E-08-9.57304E-04-6.62529E-07
 -1       228-9.36624E-09-9.59542E-04-8.10052E-07
 -1       229 2.57837E-08-9.57304E-04-6.59286E-07
 -1       230-9.41855E-09-9.63909E-04 1.65548E-04
 -1       231-1.31850E-08-1.33285E-03-7.20041E-07
 -1       232-1.61789E-08-1.68070E-03-1.49373E-04
 -1       233-2.24085E-07-1.68977E-03-1.21895E-06
 -1       234-1.60255E-08-1.67927E-03-1.34194E-06
 -1       235 1.91195E-07-1.68977E-03-1.21625E-06
 -1       236-1.61924E-08-1.67907E-03 1.47230E-04
 -1       237-1.94097E-08-2.00620E-03-9.03586E-07
 -1       238-2.01962E-08-2.23483E-03-6.62040E-05
 -1       239 5.23514E-07-2.16525E-03-1.38533E-06
 -1       240-1.98304E-08-2.18842E-03-1.91599E-06
 -1       241-5.65032E-07-2.16525E-03-1.38387E-06
 -1       242-2.02098E-08-2.23125E-03 6.27942E-05
 -1       243-2.22963E-08-2.26993E-03-2.03302E-06
 -1       244-1.88189E-08-2.14094E-03-3.62815E-06
 -1       245-3.16049E-06-2.28007E-03-2.50629E-06
 -1       246-1.80474E-08-2.16757E-03-1.89143E-06
 -1       247 3.11827E-06-2.28007E-03-2.50965E-06
 -1       248-1.88262E-08-2.13301E-03 6.49964E-07
 -1       249-1.86291E-08-2.26095E-03-1.34445E-06
 -1       250-5.14160E-09-2.39694E-03 1.25311E-04
 -1       251 2.78278E-06-1.51617E-03-9.75920E-07
 -1       252-4.03604E-09-1.92057E-03-1.50774E-06
 -1       253-2.80381E-06-1.51617E-03-9.74292E-07
 -1       254-5.08135E-09-2.42824E-03-1.32655E-04
 -3
    1PSTEP                         2           2           1          
  100CL  102 2.00000E-02         201                     1    2           1
 -4  DISP        4    1
 -5  D1          1    2    1    0
 -5  D2          1    2    2    0
 -5  D3          1    2    3    0
 -5  ALL         1    2    0    0    1ALL
 -1         1 0.00000E+00 0.00000E+00 0.00000E+00
 -1         2 0.00000E+00 0.00000E+00 0.00000E+00
 -1         3 0.00000E+00 0.00000E+00 0.00000E+00
 -1         4 0.00000E+00 0.00000E+00 0.00000E+00
 -1         9 0.00000E+00 0.00000E+00 0.00000E+00
 -1        10 0.00000E+00 0.00000E+00 0.00000E+00
 -1        11 0.00000E+00 0.00000E+00 0.00000E+00
 -1        12 0.00000E+00 0.00000E+00 0.00000E+00
 -1        13 0.00000E+00 0.00000E+00 0.00000E+00
 -1        14 0.00000E+00 0.00000E+00 0.00000E+00
 -1        15 0.00000E+00 0.00000E+00 0.00000E+00
 -1        16 0.00000E+00 0.00000E+00 0.00000E+00
 -1        17 0.00000E+00 0.00000E+00 0.00000E+00
 -1        18 0.00000E+00 0.00000E+00 0.00000E+00
 -1        19 0.00000E+00 0.00000E+00 0.00000E+00
 -1        20 0.00000E+00 0.00000E+00 0.00000E+00
 -1        33-3.19873E-05 7.91376E-05 1.02967E-04
 -1        34-1.54897E-05 2.44723E-04 1.87671E-04
 -1        35-1.27374E-05 4.92390E-04 2.42636E-04
 -1        36-4.49438E-06 7.74096E-04 2.69964E-04
 -1        37 4.25292E-06 1.07135E-03 2.71731E-04
 -1        38 1.33665E-05 1.36699E-03 2.50231E-04
 -1        39 2.08978E-05 1.60843E-03 1.85149E-04
 -1        40 1.44435E-05 1.78335E-03 9.24449E-05
 -1        41 3.42775E-05 1.81553E-03 2.05732E-05
 -1        42 4.28229E-05 1.86857E-03 1.15115E-05
 -1        43-3.64192E-05 1.70031E-03-7.81218E-05
 -1        44-1.46262E-04 1.61360E-03-2.33771E-04
 -1        51 1.46240E-04 1.61358E-03-2.33775E-04
 -1        52 3.64237E-05 1.70032E-03-7.81030E-05
 -1        53-4.28530E-05 1.86855E-03 1.15126E-05
 -1        54-3.42895E-05 1.81553E-03 2.05785E-05
 -1        55-1.44667E-05 1.78333E-03 9.24377E-05
 -1        56-2.09085E-05 1.60843E-03 1.85147E-04
 -1        57-1.33812E-05 1.36698E-03 2.50227E-04
 -1        58-4.26073E-06 1.07135E-03 2.71729E-04
 -1        59 4.48691E-06 7.74093E-04 2.69961E-04
 -1        60 1.27343E-05 4.92389E-04 2.42634E-04
 -1        61 1.54876E-05 2.44722E-04 1.87668E-04
 -1        62 3.19871E-05 7.91369E-05 1.02966E-04
 -1        63 3.19806E-05 7.91281E-05-1.02947E-04
 -1        64 1.54865E-05 2.44719E-04-1.87630E-04
 -1        65 1.27194E-05 4.92387E-04-2.42577E-04
 -1        66 4.47824E-06 7.74126E-04-2.69885E-04
 -1        67-4.25908E-06 1.07130E-03-2.71635E-04
 -1        68-1.33399E-05 1.36698E-03-2.50100E-04
 -1        69-2.10008E-05 1.60848E-03-1.85003E-04
 -1        70-1.46491E-05 1.78377E-03-9.22903E-05
 -1        71-3.40085E-05 1.81498E-03-2.03882E-05
 -1        72-4.18708E-05 1.86722E-03-1.11970E-05
 -1        73 3.50396E-05 1.70223E-03 7.84581E-05
 -1        74 1.44421E-04 1.61768E-03 2.33971E-04
 -1        78-3.19820E-05 7.91281E-05-1.02948E-04