    1C
    1UUSER                                                              
    1UDATE              10.july.2018                                    
    1UTIME              17:16:18                                        
    1UHOST                                                              
    1UPGM               CalculiX                                        
    1UVERSION           Version 2.13                             
    1UCOMPILETIME       jue jun 14 00:40:39 CEST 2018                    
    1UDIR                                                               
    1UDBN                                                               
    1UMAT    1EL                                                        
    2C                           201                                     1
 -1         1 0.00000E+00 0.00000E+00 0.00000E+00
 -1         2 1.00000E+00 0.00000E+00 0.00000E+00
 -1         3 1.00000E+00 1.00000E+00 0.00000E+00
 -1         4 0.00000E+00 1.00000E+00 0.00000E+00
 -1         9 2.50000E-01 0.00000E+00 0.00000E+00
 -1        10 5.00000E-01 0.00000E+00 0.00000E+00
 -1        11 7.50000E-01 0.00000E+00 0.00000E+00
 -1        12 1.00000E+00 2.50000E-01 0.00000E+00
 -1        13 1.00000E+00 5.00000E-01 0.00000E+00
 -1        14 1.00000E+00 7.50000E-01 0.00000E+00
 -1        15 7.50000E-01 1.00000E+00 0.00000E+00
 -1        16 5.00000E-01 1.00000E+00 0.00000E+00
 -1        17 2.50000E-01 1.00000E+00 0.00000E+00
 -1        18 0.00000E+00 7.50000E-01 0.00000E+00
 -1        19 0.00000E+00 5.00000E-01 0.00000E+00
 -1        20 0.00000E+00 2.50000E-01 0.00000E+00
 -1        33 1.00000E+00 0.00000E+00 5.00000E-01
 -1        34 1.00000E+00 0.00000E+00 1.00000E+00
 -1        35 1.00000E+00 0.00000E+00 1.50000E+00
 -1        36 1.00000E+00 0.00000E+00 2.00000E+00
 -1        37 1.00000E+00 0.00000E+00 2.50000E+00
 -1        38 1.00000E+00 0.00000E+00 3.00000E+00
 -1        39 1.00000E+00 0.00000E+00 3.50000E+00
 -1        40 1.00000E+00 0.00000E+00 4.00000E+00
 -1        41 1.00000E+00 0.00000E+00 4.50000E+00
 -1        42 1.00000E+00 0.00000E+00 5.00000E+00
 -1        43 1.00000E+00 0.00000E+00 5.50000E+00
 -1        44 1.00000E+00 0.00000E+00 6.00000E+00
 -1        51 0.00000E+00 0.00000E+00 6.00000E+00
 -1        52 0.00000E+00 0.00000E+00 5.50000E+00
 -1        53 0.00000E+00 0.00000E+00 5.00000E+00
 -1        54 0.00000E+00 0.00000E+00 4.50000E+00
 -1        55 0.00000E+00 0.00000E+00 4.00000E+00
 -1        56 0.00000E+00 0.00000E+00 3.50000E+00
 -1        57 0.00000E+00 0.00000E+00 3.00000E+00
 -1        58 0.00000E+00 0.00000E+00 2.50000E+00
 -1        59 0.00000E+00 0.00000E+00 2.00000E+00
 -1        60 0.00000E+00 0.00000E+00 1.50000E+00
 -1        61 0.00000E+00 0.00000E+00 1.00000E+00
 -1        62 0.00000E+00 0.00000E+00 5.00000E-01
 -1        63 1.00000E+00 1.00000E+00 5.00000E-01
 -1        64 1.00000E+00 1.00000E+00 1.00000E+00
 -1        65 1.00000E+00 1.00000E+00 1.50000E+00
 -1        66 1.00000E+00 1.00000E+00 2.00000E+00
 -1        67 1.00000E+00 1.00000E+00 2.50000E+00
 -1        68 1.00000E+00 1.00000E+00 3.00000E+00
 -1        69 1.00000E+00 1.00000E+00 3.50000E+00
 -1        70 1.00000E+00 1.00000E+00 4.00000E+00
 -1        71 1.00000E+00 1.00000E+00 4.50000E+00
 -1        72 1.00000E+00 1.00000E+00 5.00000E+00
 -1        73 1.00000E+00 1.00000E+00 5.50000E+00
 -1        74 1.00000E+00 1.00000E+00 6.00000E+00
 -1        78 0.00000E+00 1.00000E+00 5.00000E-01
 -1        79 0.00000E+00 1.00000E+00 1.00000E+00
 -1        80 0.00000E+00 1.00000E+00 1.50000E+00
 -1        81 0.00000E+00 1.00000E+00 2.00000E+00
 -1        82 0.00000E+00 1.00000E+00 2.50000E+00
 -1        83 0.00000E+00 1.00000E+00 3.00000E+00
 -1        84 0.00000E+00 1.00000E+00 3.50000E+00
 -1        85 0.00000E+00 1.00000E+00 4.00000E+00
 -1        86 0.00000E+00 1.00000E+00 4.50000E+00
 -1        87 0.00000E+00 1.00000E+00 5.00000E+00
 -1        88 0.00000E+00 1.00000E+00 5.50000E+00
 -1        89 0.00000E+00 1.00000E+00 6.00000E+00
 -1        93 5.00000E-01 2.50000E-01 0.00000E+00
 -1        94 2.50000E-01 5.00000E-01 0.00000E+00
 -1        95 5.00000E-01 5.00000E-01 0.00000E+00
 -1        96 7.50000E-01 5.00000E-01 0.00000E+00
 -1        97 5.00000E-01 7.50000E-01 0.00000E+00
 -1       103 5.00000E-01 0.00000E+00 5.00000E-01
 -1       104 2.50000E-01 0.00000E+00 1.00000E+00
 -1       105 5.00000E-01 0.00000E+00 1.00000E+00
 -1       106 7.50000E-01 0.00000E+00 1.00000E+00
 -1       107 5.00000E-01 0.00000E+00 1.50000E+00
 -1       108 2.50000E-01 0.00000E+00 2.00000E+00
 -1       109 5.00000E-01 0.00000E+00 2.00000E+00
 -1       110 7.50000E-01 0.00000E+00 2.00000E+00
 -1       111 5.00000E-01 0.00000E+00 2.50000E+00
 -1       112 2.50000E-01 0.00000E+00 3.00000E+00
 -1       113 5.00000E-01 0.00000E+00 3.00000E+00
 -1       114 7.50000E-01 0.00000E+00 3.00000E+00
 -1       115 5.00000E-01 0.00000E+00 3.50000E+00
 -1       116 2.50000E-01 0.00000E+00 4.00000E+00
 -1       117 5.00000E-01 0.00000E+00 4.00000E+00
 -1       118 7.50000E-01 0.00000E+00 4.00000E+00
 -1       119 5.00000E-01 0.00000E+00 4.50000E+00
 -1       120 2.50000E-01 0.00000E+00 5.00000E+00
 -1       121 5.00000E-01 0.00000E+00 5.00000E+00
 -1       122 7.50000E-01 0.00000E+00 5.00000E+00
 -1       123 5.00000E-01 0.00000E+00 5.50000E+00
 -1       124 2.50000E-01 0.00000E+00 6.00000E+00
 -1       125 5.00000E-01 0.00000E+00 6.00000E+00
 -1       126 7.50000E-01 0.00000E+00 6.00000E+00
 -1       132 1.00000E+00 5.00000E-01 5.00000E-01
 -1       133 1.00000E+00 2.50000E-01 1.00000E+00
 -1       134 1.00000E+00 5.00000E-01 1.00000E+00
 -1       135 1.00000E+00 7.50000E-01 1.00000E+00
 -1       136 1.00000E+00 5.00000E-01 1.50000E+00
 -1       137 1.00000E+00 2.50000E-01 2.00000E+00
 -1       138 1.00000E+00 5.00000E-01 2.00000E+00
 -1       139 1.00000E+00 7.50000E-01 2.00000E+00
 -1       140 1.00000E+00 5.00000E-01 2.50000E+00
 -1       141 1.00000E+00 2.50000E-01 3.00000E+00
 -1       142 1.00000E+00 5.00000E-01 3.00000E+00
 -1       143 1.00000E+00 7.50000E-01 3.00000E+00
 -1       144 1.00000E+00 5.00000E-01 3.50000E+00
 -1       145 1.00000E+00 2.50000E-01 4.00000E+00
 -1       146 1.00000E+00 5.00000E-01 4.00000E+00
 -1       147 1.00000E+00 7.50000E-01 4.00000E+00
 -1       148 1.00000E+00 5.00000E-01 4.50000E+00
 -1       149 1.00000E+00 2.50000E-01 5.00000E+00
 -1       150 1.00000E+00 5.00000E-01 5.00000E+00
 -1       151 1.00000E+00 7.50000E-01 5.00000E+00
 -1       152 1.00000E+00 5.00000E-01 5.50000E+00
 -1       153 1.00000E+00 2.50000E-01 6.00000E+00
 -1       154 1.00000E+00 5.00000E-01 6.00000E+00
 -1       155 1.00000E+00 7.50000E-01 6.00000E+00
 -1       161 5.00000E-01 1.00000E+00 5.00000E-01
 -1       162 7.50000E-01 1.00000E+00 1.00000E+00
 -1       163 5.00000E-01 1.00000E+00 1.00000E+00
 -1       164 2.50000E-01 1.00000E+00 1.00000E+00
 -1       165 5.00000E-01 1.00000E+00 1.50000E+00
 -1       166 7.50000E-01 1.00000E+00 2.00000E+00
 -1       167 5.00000E-01 1.00000E+00 2.00000E+00
 -1       168 2.50000E-01 1.00000E+00 2.00000E+00
 -1       169 5.00000E-01 1.00000E+00 2.50000E+00
 -1       170 7.50000E-01 1.00000E+00 3.00000E+00
 -1       171 5.00000E-01 1.00000E+00 3.00000E+00
 -1       172 2.50000E-01 1.00000E+00 3.00000E+00
 -1       173 5.00000E-01 1.00000E+00 3.50000E+00
 -1       174 7.50000E-01 1.00000E+00 4.00000E+00
 -1       175 5.00000E-01 1.00000E+00 4.00000E+00
 -1       176 2.50000E-01 1.00000E+00 4.00000E+00
 -1       177 5.00000E-01 1.00000E+00 4.50000E+00
 -1       178 7.50000E-01 1.00000E+00 5.00000E+00
 -1       179 5.00000E-01 1.00000E+00 5.00000E+00
 -1       180 2.50000E-01 1.00000E+00 5.00000E+00
 -1       181 5.00000E-01 1.00000E+00 5.50000E+00
 -1       182 7.50000E-01 1.00000E+00 6.00000E+00
 -1       183 5.00000E-01 1.00000E+00 6.00000E+00
 -1       184 2.50000E-01 1.00000E+00 6.00000E+00
 -1       190 0.00000E+00 5.00000E-01 5.00000E-01
 -1       191 0.00000E+00 7.50000E-01 1.00000E+00
 -1       192 0.00000E+00 5.00000E-01 1.00000E+00
 -1       193 0.00000E+00 2.50000E-01 1.00000E+00
 -1       194 0.00000E+00 5.00000E-01 1.50000E+00
 -1       195 0.00000E+00 7.50000E-01 2.00000E+00
 -1       196 0.00000E+00 5.00000E-01 2.00000E+00
 -1       197 0.00000E+00 2.50000E-01 2.00000E+00
 -1       198 0.00000E+00 5.00000E-01 2.50000E+00
 -1       199 0.00000E+00 7.50000E-01 3.00000E+00
 -1       200 0.00000E+00 5.00000E-01 3.00000E+00
 -1       201 0.00000E+00 2.50000E-01 3.00000E+00
 -1       202 0.00000E+00 5.00000E-01 3.50000E+00
 -1       203 0.00000E+00 7.50000E-01 4.00000E+00
 -1       204 0.00000E+00 5.00000E-01 4.00000E+00
 -1       205 0.00000E+00 2.50000E-01 4.00000E+00
 -1       206 0.00000E+00 5.00000E-01 4.50000E+00
 -1       207 0.00000E+00 7.50000E-01 5.00000E+00
 -1       208 0.00000E+00 5.00000E-01 5.00000E+00
 -1       209 0.00000E+00 2.50000E-01 5.00000E+00
 -1       210 0.00000E+00 5.00000E-01 5.50000E+00
 -1       211 0.00000E+00 7.50000E-01 6.00000E+00
 -1       212 0.00000E+00 5.00000E-01 6.00000E+00
 -1       213 0.00000E+00 2.50000E-01 6.00000E+00
 -1       219 5.00000E-01 5.00000E-01 5.00000E-01
 -1       220 5.00000E-01 2.50000E-01 1.00000E+00
 -1       221 2.50000E-01 5.00000E-01 1.00000E+00
 -1       222 5.00000E-01 5.00000E-01 1.00000E+00
 -1       223 7.50000E-01 5.00000E-01 1.00000E+00
 -1       224 5.00000E-01 7.50000E-01 1.00000E+00
 -1       225 5.00000E-01 5.00000E-01 1.50000E+00
 -1       226 5.00000E-01 2.50000E-01 2.00000E+00
 -1       227 2.50000E-01 5.00000E-01 2.00000E+00
 -1       228 5.00000E-01 5.00000E-01 2.00000E+00
 -1       229 7.50000E-01 5.00000E-01 2.00000E+00
 -1       230 5.00000E-01 7.50000E-01 2.00000E+00
 -1       231 5.00000E-01 5.00000E-01 2.50000E+00
 -1       232 5.00000E-01 2.50000E-01 3.00000E+00
 -1       233 2.50000E-01 5.00000E-01 3.00000E+00
 -1       234 5.00000E-01 5.00000E-01 3.00000E+00
 -1       235 7.50000E-01 5.00000E-01 3.00000E+00
 -1       236 5.00000E-01 7.50000E-01 3.00000E+00
 -1       237 5.00000E-01 5.00000E-01 3.50000E+00
 -1       238 5.00000E-01 2.50000E-01 4.00000E+00
 -1       239 2.50000E-01 5.00000E-01 4.00000E+00
 -1       240 5.00000E-01 5.00000E-01 4.00000E+00
 -1       241 7.50000E-01 5.00000E-01 4.00000E+00
 -1       242 5.00000E-01 7.50000E-01 4.00000E+00
 -1       243 5.00000E-01 5.00000E-01 4.50000E+00
 -1       244 5.00000E-01 2.50000E-01 5.00000E+00
 -1       245 2.50000E-01 5.00000E-01 5.00000E+00
 -1       246 5.00000E-01 5.00000E-01 5.00000E+00
 -1       247 7.50000E-01 5.00000E-01 5.00000E+00
 -1       248 5.00000E-01 7.50000E-01 5.00000E+00
 -1       249 5.00000E-01 5.00000E-01 5.50000E+00
 -1       250 5.00000E-01 2.50000E-01 6.00000E+00
 -1       251 2.50000E-01 5.00000E-01 6.00000E+00
 -1       252 5.00000E-01 5.00000E-01 6.00000E+00
 -1       253 7.50000E-01 5.00000E-01 6.00000E+00
 -1       254 5.00000E-01 7.50000E-01 6.00000E+00
 -3
    3C                            24                                     1
 -1         1    4    0    1
 -2         1        10        95        19        61       105       222       192         9        93
 -2        94        20        62       103       219       190       104       220       221       193
 -1         2    4    0    1
 -2        10         2        13        95       105        34       134       222        11        12
 -2        96        93       103        33       132       219       106       133       223       220
 -1         3    4    0    1
 -2        19        95        16         4       192       222       163        79        94        97
 -2        17        18       190       219       161        78       221       224       164       191
 -1         4    4    0    1
 -2        95        13         3        16       222       134        64       163        96        14
 -2        15        97       219       132        63       161       223       135       162       224
 -1         5    4    0    1
 -2        61       105       222       192        59       109       228       196       104       220
 -2       221       193        60       107       225       194       108       226       227       197
 -1         6    4    0    1
 -2       105        34       134       222       109        36       138       228       106       133
 -2       223       220       107        35       136       225       110       137       229       226
 -1         7    4    0    1
 -2       192       222       163        79       196       228       167        81       221       224
 -2       164       191       194       225       165        80       227       230       168       195
 -1         8    4    0    1
 -2       222       134        64       163       228       138        66       167       223       135
 -2       162       224       225       136        65       165       229       139       166       230
 -1         9    4    0    1
 -2        59       109       228       196        57       113       234       200       108       226
 -2       227       197        58       111       231       198       112       232       233       201
 -1        10    4    0    1
 -2       109        36       138       228       113        38       142       234       110       137
 -2       229       226       111        37       140       231       114       141       235       232
 -1        11    4    0    1
 -2       196       228       167        81       200       234       171        83       227       230
 -2       168       195       198       231       169        82       233       236       172       199
 -1        12    4    0    1
 -2       228       138        66       167       234       142        68       171       229       139
 -2       166       230       231       140        67       169       235       143       170       236
 -1        13    4    0    1
 -2        57       113       234       200        55       117       240       204       112       232
 -2       233       201        56       115       237       202       116       238       239       205
 -1        14    4    0    1
 -2       113        38       142       234       117        40       146       240       114       141
 -2       235       232       115        39       144       237       118       145       241       238
 -1        15    4    0    1
 -2       200       234       171        83       204       240       175        85       233       236
 -2       172       199       202       237       173        84       239       242       176       203
 -1        16    4    0    1
 -2       234       142        68       171       240       146        70       175       235       143
 -2       170       236       237       144        69       173       241       147       174       242
 -1        17    4    0    1
 -2        55       117       240       204        53       121       246       208       116       238
 -2       239       205        54       119       243       206       120       244       245       209
 -1        18    4    0    1
 -2       117        40       146       240       121        42       150       246       118       145
 -2       241       238       119        41       148       243       122       149       247       244
 -1        19    4    0    1
 -2       204       240       175        85       208       246       179        87       239       242
 -2       176       203       206       243       177        86       245       248       180       207
 -1        20    4    0    1
 -2       240       146        70       175       246       150        72       179       241       147
 -2       174       242       243       148        71       177       247       151       178       248
 -1        21    4    0    1
 -2        53       121       246       208        51       125       252       212       120       244
 -2       245       209        52       123       249       210       124       250       251       213
 -1        22    4    0    1
 -2       121        42       150       246       125        44       154       252       122       149
 -2       247       244       123        43       152       249       126       153       253       250
 -1        23    4    0    1
 -2       208       246       179        87       212       252       183        89       245       248
 -2       180       207       210       249       181        88       251       254       184       211
 -1        24    4    0    1
 -2       246       150        72       179       252       154        74       183       247       151
 -2       178       248       249       152        73       181       253       155       182       254
 -3
    1PSTEP                         1           1           1          
  100CL  101 1.00000E-02         201                     1    1           1
 -4  DISP        4    1
 -5  D1          1    2    1    0
 -5  D2          1    2    2    0
 -5  D3          1    2    3    0
 -5  ALL         1    2    0    0    1ALL
 -1         1 0.00000E+00 0.00000E+00 0.00000E+00
 -1         2 0.00000E+00 0.00000E+00 0.00000E+00
 -1         3 0.00000E+00 0.00000E+00 0.00000E+00
 -1         4 0.00000E+00 0.00000E+00 0.00000E+00
 -1         9 0.00000E+00 0.00000E+00 0.00000E+00
 -1        10 0.00000E+00 0.00000E+00 0.00000E+00
 -1        11 0.00000E+00 0.00000E+00 0.00000E+00
 -1        12 0.00000E+00 0.00000E+00 0.00000E+00
 -1        13 0.00000E+00 0.00000E+00 0.00000E+00
 -1        14 0.00000E+00 0.00000E+00 0.00000E+00
 -1        15 0.00000E+00 0.00000E+00 0.00000E+00
 -1        16 0.00000E+00 0.00000E+00 0.00000E+00
 -1        17 0.00000E+00 0.00000E+00 0.00000E+00
 -1        18 0.00000E+00 0.00000E+00 0.00000E+00
 -1        19 0.00000E+00 0.00000E+00 0.00000E+00
 -1        20 0.00000E+00 0.00000E+00 0.00000E+00
 -1        33 3.90776E-05-9.69098E-05-1.25775E-04
 -1        34 1.87567E-05-2.97553E-04-2.28737E-04
 -1        35 1.56583E-05-6.01525E-04-2.96168E-04
 -1        36 5.01631E-06-9.40714E-04-3.28053E-04
 -1        37-5.25992E-06-1.30888E-03-3.30878E-04
 -1        38-1.59810E-05-1.65821E-03-3.02869E-04
 -1        39-2.53408E-05-1.96234E-03-2.27464E-04
 -1        40-1.74937E-05-2.15066E-03-1.03747E-04
 -1        41-4.56627E-05-2.22340E-03-2.03724E-05
 -1        42-3.87447E-05-2.25891E-03-3.01286E-06
 -1        43 1.71891E-05-2.06115E-03 5.54777E-05
 -1        44 5.83994E-05-1.99450E-03 2.75110E-04
 -1        51-5.83957E-05-1.99450E-03 2.75104E-04
 -1        52-1.71890E-05-2.06115E-03 5.54767E-05
 -1        53 3.87457E-05-2.25891E-03-3.01241E-06
 -1        54 4.56625E-05-2.22340E-03-2.03723E-05
 -1        55 1.74942E-05-2.15066E-03-1.03747E-04
 -1        56 2.53408E-05-1.96234E-03-2.27464E-04
 -1        57 1.59812E-05-1.65821E-03-3.02869E-04
 -1        58 5.25991E-06-1.30888E-03-3.30878E-04
 -1        59-5.01621E-06-9.40714E-04-3.28053E-04
 -1        60-1.56583E-05-6.01525E-04-2.96168E-04
 -1        61-1.87567E-05-2.97553E-04-2.28737E-04
 -1        62-3.90776E-05-9.69098E-05-1.25775E-04
 -1        63-3.90200E-05-9.68475E-05 1.25650E-04
 -1        64-1.87726E-05-2.97599E-04 2.28453E-04
 -1        65-1.55682E-05-6.01430E-04 2.95779E-04
 -1        66-5.09435E-06-9.41121E-04 3.27481E-04
 -1        67 5.41980E-06-1.30849E-03 3.30258E-04
 -1        68 1.58090E-05-1.65928E-03 3.01931E-04
 -1        69 2.56912E-05-1.96169E-03 2.26402E-04
 -1        70 1.84565E-05-2.15514E-03 1.02435E-04
 -1        71 4.45582E-05-2.21893E-03 1.86597E-05
 -1        72 3.27050E-05-2.25035E-03 3.84688E-07
 -1        73-8.52801E-06-2.07500E-03-5.85286E-05
 -1        74-4.93926E-05-2.02706E-03-2.78685E-04
 -1        78 3.90200E-05-9.68475E-05 1.25650E-04
 -1        79 1.87726E-05-2.97599E-04 2.28453E-04
 -1        80 1.55682E-05-6.01430E-04 2.95779E-04
 -1        81 5.09431E-06-9.41121E-04 3.27481E-04
 -1        82-5.41972E-06-1.30849E-03 3.30258E-04
 -1        83-1.58091E-05-1.65928E-03 3.01931E-04
 -1        84-2.56910E-05-1.96169E-03 2.26402E-04
 -1        85-1.84568E-05-2.15514E-03 1.02435E-04
 -1        86-4.45578E-05-2.21894E-03 1.86596E-05
 -1        87-3.27059E-05-2.25035E-03 3.84222E-07
 -1        88 8.52805E-06-2.07500E-03-5.85276E-05
 -1        89 4.93890E-05-2.02706E-03-2.78679E-04
 -1        93 0.00000E+00 0.00000E+00 0.00000E+00
 -1        94 0.00000E+00 0.00000E+00 0.00000E+00
 -1        95 0.00000E+00 0.00000E+00 0.00000E+00
 -1        96 0.00000E+00 0.00000E+00 0.00000E+00
 -1        97 0.00000E+00 0.00000E+00 0.00000E+00
 -1       103 2.98511E-12-1.12666E-04-1.23214E-04
 -1       104-9.24894E-06-3.09832E-04-2.32871E-04
 -1       105-4.19703E-12-3.12573E-04-2.34725E-04
 -1       106 9.24895E-06-3.09832E-04-2.32871E-04
 -1       107 1.75397E-11-6.06530E-04-2.97214E-04
 -1       108-2.46789E-06-9.45761E-04-3.31423E-04
 -1       109-9.84409E-12-9.52623E-04-3.32607E-04
 -1       110 2.46792E-06-9.45761E-04-3.31423E-04
 -1       111 3.87040E-11-1.29960E-03-3.31959E-04
 -1       112 7.79062E-06-1.66552E-03-3.08337E-04
 -1       113-4.20010E-11-1.66738E-03-3.10707E-04
 -1       114-7.79056E-06-1.66552E-03-3.08337E-04
 -1       115 8.17199E-11-1.93987E-03-2.24961E-04
 -1       116 9.69912E-06-2.14998E-03-1.11037E-04
 -1       117-1.00583E-10-2.19193E-03-1.17211E-04
 -1       118-9.69904E-06-2.14998E-03-1.11037E-04
 -1       119 1.45151E-10-2.16562E-03-9.97327E-06
 -1       120 1.60179E-05-2.30823E-03-1.69437E-05
 -1       121-3.10617E-10-2.25664E-03-3.71328E-05
 -1       122-1.60176E-05-2.30823E-03-1.69436E-05
 -1       123 5.37031E-10-2.08173E-03 9.36588E-05
 -1       124-4.92982E-06-1.81094E-03 2.62211E-04
 -1       125 7.23689E-10-2.01567E-03 2.78261E-04
 -1       126 4.93213E-06-1.81095E-03 2.62214E-04
 -1       132 2.14027E-08-7.35527E-05-6.45718E-08
 -1       133 9.63857E-06-2.91581E-04-1.07866E-04
 -1       134 3.42458E-08-2.95849E-04-9.81022E-08
 -1       135-9.61400E-06-2.91617E-04 1.07620E-04
 -1       136-1.38116E-09-5.89432E-04-2.23024E-07
 -1       137 1.95681E-06-9.44592E-04-1.60433E-04
 -1       138 8.34471E-08-9.45695E-04-2.37005E-07
 -1       139-1.92517E-06-9.44743E-04 1.59921E-04
 -1       140-9.08416E-09-1.30921E-03-3.68837E-07
 -1       141-5.86789E-06-1.65903E-03-1.41102E-04
 -1       142 1.25540E-07-1.66881E-03-9.70595E-08
 -1       143 5.93398E-06-1.65978E-03 1.40491E-04
 -1       144-2.79488E-07-1.97240E-03-5.51853E-07
 -1       145-1.72052E-05-2.19731E-03-5.91682E-05
 -1       146-4.31007E-07-2.18651E-03-1.07656E-06
 -1       147 1.68083E-05-2.19876E-03 5.75197E-05
 -1       148 7.76018E-07-2.21681E-03-7.18700E-07
 -1       149 1.51888E-05-2.15094E-03 1.29067E-05
 -1       150 2.60607E-06-2.21895E-03-2.47394E-07
 -1       151-1.55972E-05-2.14829E-03-1.44626E-05
 -1       152-3.97956E-06-2.13566E-03-1.12741E-06
 -1       153-1.02276E-04-2.40817E-03 1.27390E-04
 -1       154-1.29137E-06-2.15007E-03 1.09689E-06
 -1       155 1.04543E-04-2.41910E-03-1.29461E-04
 -1       161-1.15932E-12-1.12637E-04 1.23063E-04
 -1       162-9.25371E-06-3.09796E-04 2.32605E-04
 -1       163 1.19914E-11-3.12440E-04 2.34464E-04
 -1       164 9.25372E-06-3.09796E-04 2.32605E-04
 -1       165-1.30849E-12-6.06539E-04 2.96833E-04
 -1       166-2.52232E-06-9.45677E-04 3.30939E-04
 -1       167 3.57757E-11-9.52132E-04 3.32259E-04
 -1       168 2.52234E-06-9.45677E-04 3.30939E-04
 -1       169-1.64750E-12-1.29995E-03 3.31042E-04
 -1       170 7.79672E-06-1.66511E-03 3.07454E-04
 -1       171 8.95489E-11-1.66520E-03 3.09675E-04
 -1       172-7.79669E-06-1.66511E-03 3.07454E-04
 -1       173-2.55770E-11-1.94101E-03 2.24131E-04
 -1       174 9.77857E-06-2.14616E-03 1.09908E-04
 -1       175 1.64927E-10-2.18157E-03 1.16908E-04
 -1       176-9.77852E-06-2.14616E-03 1.09908E-04
 -1       177-7.72628E-11-2.16494E-03 6.78718E-06
 -1       178 1.43012E-05-2.31041E-03 1.37075E-05
 -1       179 3.92851E-10-2.24912E-03 3.23824E-05
 -1       180-1.43013E-05-2.31041E-03 1.37075E-05
 -1       181-4.80633E-10-2.08799E-03-9.30554E-05
 -1       182-5.06207E-06-1.79989E-03-2.64061E-04
 -1       183-6.42535E-10-2.04370E-03-2.81163E-04
 -1       184 5.05998E-06-1.79988E-03-2.64059E-04
 -1       190-2.13998E-08-7.35527E-05-6.45685E-08
 -1       191 9.61400E-06-2.91617E-04 1.07620E-04
 -1       192-3.42372E-08-2.95849E-04-9.80954E-08
 -1       193-9.63855E-06-2.91581E-04-1.07866E-04
 -1       194 1.39814E-09-5.89432E-04-2.23015E-07
 -1       195 1.92517E-06-9.44743E-04 1.59921E-04
 -1       196-8.34193E-08-9.45695E-04-2.36995E-07
 -1       197-1.95675E-06-9.44592E-04-1.60433E-04
 -1       198 9.11994E-09-1.30921E-03-3.68827E-07
 -1       199-5.93401E-06-1.65978E-03 1.40491E-04
 -1       200-1.25495E-07-1.66881E-03-9.70502E-08
 -1       201 5.86801E-06-1.65903E-03-1.41102E-04
 -1       202 2.79546E-07-1.97240E-03-5.51844E-07
 -1       203-1.68084E-05-2.19876E-03 5.75196E-05
 -1       204 4.31078E-07-2.18651E-03-1.07655E-06
 -1       205 1.72054E-05-2.19731E-03-5.91681E-05
 -1       206-7.75961E-07-2.21680E-03-7.18699E-07
 -1       207 1.55968E-05-2.14829E-03-1.44626E-05
 -1       208-2.60603E-06-2.21895E-03-2.47398E-07
 -1       209-1.51883E-05-2.15094E-03 1.29067E-05
 -1       210 3.97966E-06-2.13566E-03-1.12741E-06
 -1       211-1.04545E-04-2.41910E-03-1.29459E-04
 -1       212 1.29150E-06-2.15007E-03 1.09687E-06
 -1       213 1.02278E-04-2.40817E-03 1.27388E-04
 -1       219 1.21612E-12-8.97861E-05-5.31294E-08
 -1       220 6.69799E-14-3.03317E-04-1.11598E-04
 -1       221-1.73832E-08-3.05098E-04-1.43734E-07
 -1       222 4.13684E-12-3.04454E-04-1.68405E-07
 -1       223 1.73915E-08-3.05098E-04-1.43738E-07
 -1       224 8.07928E-12-3.03236E-04 1.11335E-04
 -1       225 8.42226E-12-5.99029E-04-1.80271E-07
 -1       226 1.45824E-12-9.47547E-04-1.63822E-04
 -1       227-3.96815E-08-9.41900E-04-2.57309E-07
 -1       228 1.31294E-11-9.40574E-04-3.58932E-07
 -1       229 3.97084E-08-9.41900E-04-2.57314E-07
 -1       230 2.48147E-11-9.47349E-04 1.63173E-04
 -1       231 1.87812E-11-1.31196E-03-2.44120E-07
 -1       232-8.10143E-12-1.65128E-03-1.46255E-04
 -1       233-5.22623E-08-1.65849E-03-5.96626E-07
 -1       234 2.35050E-11-1.64058E-03-8.03027E-07
 -1       235 5.23095E-08-1.65849E-03-5.96631E-07
 -1       236 5.49705E-11-1.64998E-03 1.45391E-04
 -1       237 2.82817E-11-1.97433E-03-1.33772E-07
 -1       238-3.67279E-11-2.17870E-03-6.68363E-05
 -1       239 2.84445E-07-2.12799E-03-4.58158E-07
 -1       240 3.12397E-11-2.12116E-03-6.77324E-07
 -1       241-2.84381E-07-2.12799E-03-4.58162E-07
 -1       242 1.01724E-10-2.17416E-03 6.48286E-05
 -1       243 3.42588E-11-2.23568E-03-1.30805E-06
 -1       244-1.21208E-10-2.08050E-03-1.02334E-06
 -1       245-8.37976E-07-2.20992E-03-1.93524E-06
 -1       246 3.36542E-11-2.03793E-03-1.40120E-06
 -1       247 8.38036E-07-2.20992E-03-1.93524E-06
 -1       248 1.90612E-10-2.07582E-03 1.03628E-06
 -1       249 2.91097E-11-2.24288E-03-5.07637E-07
 -1       250 6.14093E-10-2.03480E-03 1.10346E-04
 -1       251-1.17630E-06-1.52630E-03 4.38719E-06
 -1       252 2.14143E-11-1.54201E-03 2.17512E-06
 -1       253 1.17634E-06-1.52630E-03 4.38720E-06
 -1       254-5.37110E-10-2.05172E-03-1.22676E-04
 -3
    1PSTEP                         2           2           1          
  100CL  102 2.00000E-02         201                     1    2           1
 -4  DISP        4    1
 -5  D1          1    2    1    0
 -5  D2          1    2    2    0
 -5  D3          1    2    3    0
 -5  ALL         1    2    0    0    1ALL
 -1         1 0.00000E+00 0.00000E+00 0.00000E+00
 -1         2 0.00000E+00 0.00000E+00 0.00000E+00
 -1         3 0.00000E+00 0.00000E+00 0.00000E+00
 -1         4 0.00000E+00 0.00000E+00 0.00000E+00
 -1         9 0.00000E+00 0.00000E+00 0.00000E+00
 -1        10 0.00000E+00 0.00000E+00 0.00000E+00
 -1        11 0.00000E+00 0.00000E+00 0.00000E+00
 -1        12 0.00000E+00 0.00000E+00 0.00000E+00
 -1        13 0.00000E+00 0.00000E+00 0.00000E+00
 -1        14 0.00000E+00 0.00000E+00 0.00000E+00
 -1        15 0.00000E+00 0.00000E+00 0.00000E+00
 -1        16 0.00000E+00 0.00000E+00 0.00000E+00
 -1        17 0.00000E+00 0.00000E+00 0.00000E+00
 -1        18 0.00000E+00 0.00000E+00 0.00000E+00
 -1        19 0.00000E+00 0.00000E+00 0.00000E+00
 -1        20 0.00000E+00 0.00000E+00 0.00000E+00
 -1        33-3.20408E-05 7.94118E-05 1.03207E-04
 -1        34-1.54998E-05 2.45074E-04 1.88097E-04
 -1        35-1.28741E-05 4.93293E-04 2.43328E-04
 -1        36-4.61578E-06 7.74462E-04 2.69952E-04
 -1        37 4.73710E-06 1.07417E-03 2.71790E-04
 -1        38 1.31806E-05 1.36945E-03 2.50800E-04
 -1        39 2.00836E-05 1.60879E-03 1.88319E-04
 -1        40 1.07211E-05 1.77858E-03 8.70985E-05
 -1        41 4.22362E-05 1.82713E-03 1.24996E-05
 -1        42 3.64044E-05 1.89824E-03 1.04594E-05
 -1        43-3.09748E-05 1.66678E-03-3.25271E-05
 -1        44-1.48545E-04 1.62407E-03-2.33652E-04
 -1        51 1.48539E-04 1.62406E-03-2.33642E-04
 -1        52 3.09747E-05 1.66678E-03-3.25254E-05
 -1        53-3.64060E-05 1.89824E-03 1.04586E-05
 -1        54-4.22357E-05 1.82713E-03 1.24995E-05
 -1        55-1.07218E-05 1.77858E-03 8.70984E-05
 -1        56-2.00835E-05 1.60879E-03 1.88319E-04
 -1        57-1.31809E-05 1.36945E-03 2.50800E-04
 -1        58-4.73705E-06 1.07417E-03 2.71790E-04
 -1        59 4.61565E-06 7.74462E-04 2.69952E-04
 -1        60 1.28741E-05 4.93293E-04 2.43328E-04
 -1        61 1.54998E-05 2.45074E-04 1.88097E-04
 -1        62 3.20408E-05 7.94118E-05 1.03207E-04
 -1        63 3.20054E-05 7.93614E-05-1.03098E-04
 -1        64 1.54848E-05 2.45029E-04-1.87874E-04
 -1        65 1.28182E-05 4.93294E-04-2.43009E-04
 -1        66 4.58329E-06 7.74578E-04-2.69535E-04
 -1        67-4.72395E-06 1.07394E-03-2.71246E-04
 -1        68-1.29731E-05 1.36907E-03-2.50047E-04
 -1        69-2.04753E-05 1.60932E-03-1.87554E-04
 -1        70-1.10824E-05 1.78062E-03-8.63578E-05
 -1        71-4.12855E-05 1.82428E-03-1.16537E-05
 -1        72-3.14811E-05 1.89035E-03-8.66904E-06
 -1        73 2.38471E-05 1.67819E-03 3.46228E-05
 -1        74 1.41670E-04 1.65190E-03 2.35467E-04
 -1        78-3.20054E-05 7.93614E-05-1.03098E-04