
 displacements (vx,vy,vz) for set NALL and time  0.1000000E-01

         5  0.000000E+00  0.000000E+00  0.000000E+00
         6  0.000000E+00  0.000000E+00  0.000000E+00
         7  0.000000E+00  0.000000E+00  0.000000E+00
         8  0.000000E+00  0.000000E+00  0.000000E+00
        21  0.000000E+00  0.000000E+00  0.000000E+00
        22  0.000000E+00  0.000000E+00  0.000000E+00
        23  0.000000E+00  0.000000E+00  0.000000E+00
        24  0.000000E+00  0.000000E+00  0.000000E+00
        25  0.000000E+00  0.000000E+00  0.000000E+00
        26  0.000000E+00  0.000000E+00  0.000000E+00
        27  0.000000E+00  0.000000E+00  0.000000E+00
        28  0.000000E+00  0.000000E+00  0.000000E+00
        29  0.000000E+00  0.000000E+00  0.000000E+00
        30  0.000000E+00  0.000000E+00  0.000000E+00
        31  0.000000E+00  0.000000E+00  0.000000E+00
        32  0.000000E+00  0.000000E+00  0.000000E+00
        44  1.541842E-04 -2.021461E-03  2.888049E-04
        45  4.228969E-05 -1.557582E-03  4.714370E-04
        46 -4.813924E-05 -1.132297E-03  5.447053E-04
        47  6.920748E-05 -4.534820E-04  3.505064E-04
        48 -6.920775E-05 -4.534822E-04  3.505068E-04
        49  4.813841E-05 -1.132297E-03  5.447059E-04
        50 -4.229164E-05 -1.557582E-03  4.714385E-04
        51 -1.541870E-04 -2.021462E-03  2.888073E-04
        74 -1.276792E-04 -2.111541E-03 -2.932043E-04
        75 -1.794794E-05 -1.596913E-03 -4.714834E-04
        76  3.290269E-05 -1.113533E-03 -5.448384E-04
        77 -7.675788E-05 -4.393264E-04 -3.519238E-04
        89  1.276756E-04 -2.111541E-03 -2.932024E-04
        90  1.794622E-05 -1.596913E-03 -4.714823E-04
        91 -3.290386E-05 -1.113533E-03 -5.448374E-04
        92  7.675765E-05 -4.393263E-04 -3.519234E-04
        98  0.000000E+00  0.000000E+00  0.000000E+00
        99  0.000000E+00  0.000000E+00  0.000000E+00
       100  0.000000E+00  0.000000E+00  0.000000E+00
       101  0.000000E+00  0.000000E+00  0.000000E+00
       102  0.000000E+00  0.000000E+00  0.000000E+00
       124  7.909173E-06 -1.838460E-03  2.727662E-04
       125 -1.772292E-09 -2.201168E-03  2.860243E-04
       126 -7.912224E-06 -1.838459E-03  2.727651E-04
       127 -8.292396E-10 -1.612968E-03  5.245325E-04
       128  2.936041E-06 -1.194659E-03  5.776585E-04
       129 -5.183072E-10 -1.108164E-03  5.862978E-04
       130 -2.936985E-06 -1.194659E-03  5.776581E-04
       131 -7.635573E-11 -4.650992E-04  3.432895E-04
       153 -1.254369E-04 -2.362067E-03  1.274930E-04
       154 -1.058667E-05 -2.022638E-03 -1.971749E-06
       155  1.249877E-04 -2.387820E-03 -1.319524E-04
       156 -1.112311E-05 -1.745125E-03 -6.187298E-06
       157  2.445003E-05 -9.780838E-04  2.329554E-04
       158  8.107050E-06 -1.001042E-03 -2.802895E-06
       159 -2.175016E-05 -9.745563E-04 -2.347246E-04
       160  3.702795E-06 -3.865550E-04  4.594225E-07
       182  7.077212E-06 -1.800321E-03 -2.767124E-04
       183 -1.147897E-09 -2.273033E-03 -2.887348E-04
       184 -7.080078E-06 -1.800321E-03 -2.767114E-04
       185 -1.013074E-09 -1.638062E-03 -5.215969E-04
       186 -8.362887E-07 -1.214528E-03 -5.809533E-04
       187 -3.304094E-10 -1.110093E-03 -5.883307E-04
       188  8.353789E-07 -1.214527E-03 -5.809528E-04
       189 -1.112002E-10 -4.637440E-04 -3.440826E-04
       211 -1.249910E-04 -2.387820E-03 -1.319508E-04
       212  1.058433E-05 -2.022638E-03 -1.970699E-06
       213  1.254341E-04 -2.362068E-03  1.274939E-04
       214  1.112107E-05 -1.745125E-03 -6.186225E-06
       215  2.174920E-05 -9.745562E-04 -2.347238E-04
       216 -8.107907E-06 -1.001042E-03 -2.802075E-06
       217 -2.445084E-05 -9.780839E-04  2.329563E-04
       218 -3.703183E-06 -3.865550E-04  4.598379E-07
       250 -1.884968E-09 -2.396876E-03  1.251509E-04
       251  3.485825E-06 -1.516049E-03 -9.911386E-07
       252 -1.883369E-09 -1.920314E-03 -1.516154E-06
       253 -3.489037E-06 -1.516049E-03 -9.920400E-07
       254 -1.504615E-09 -2.426161E-03 -1.327631E-04
       255 -8.930066E-10 -1.694547E-03 -3.022822E-06
       256 -5.259018E-10 -9.766451E-04  2.556959E-04
       257 -3.991648E-06 -1.128177E-03 -1.141950E-06
       258 -5.339581E-10 -1.024112E-03 -1.386939E-06
       259  3.990736E-06 -1.128177E-03 -1.142256E-06
       260 -4.414980E-10 -9.786059E-04 -2.578603E-04
       261 -1.076985E-10 -4.346065E-04 -1.743578E-07

 forces (fx,fy,fz) for set NALL and time  0.1000000E-01

         5  1.972460E+00 -7.848811E-01 -1.080154E+00
         6 -1.972460E+00 -7.848804E-01 -1.080152E+00
         7  2.078139E+00 -2.954970E-01  1.095374E+00
         8 -2.078136E+00 -2.954991E-01  1.095375E+00
        21 -1.346453E+00  2.255276E+00 -1.112588E+01
        22  1.413161E-06 -1.681583E+00 -1.556404E+00
        23  1.346449E+00  2.255272E+00 -1.112588E+01
        24 -1.666666E+00  7.804635E+00 -5.930918E+00
        25  6.903806E-02 -3.638583E+00 -4.430922E-02
        26  1.443957E+00  7.464773E+00  5.959181E+00
        27 -1.258818E+00  1.692641E+00  1.109696E+01
        28 -5.316518E-07 -8.943951E-01  1.663749E+00
        29  1.258815E+00  1.692638E+00  1.109696E+01
        30 -1.443953E+00  7.464773E+00  5.959170E+00
        31 -6.903998E-02 -3.638584E+00 -4.430779E-02
        32  1.666667E+00  7.804635E+00 -5.930922E+00
        44  6.652016E+00  2.073355E+01  9.288717E-01
        45 -1.780386E-06 -6.080691E-01  1.525512E-01
        46  1.359722E-06  1.541496E+00 -4.634069E-01
        47 -4.750135E-07 -1.167017E+00  5.403022E-01
        48  5.251316E-07 -1.167017E+00  5.403023E-01
        49 -1.222702E-06  1.541496E+00 -4.634069E-01
        50  1.330290E-06 -6.080697E-01  1.525511E-01
        51 -6.652008E+00  2.073356E+01  9.288909E-01
        74 -7.132696E+00  1.754355E+01 -8.870136E-01
        75  1.584306E-07 -6.080905E-01 -1.525442E-01
        76 -4.080376E-07  1.541511E+00  4.634049E-01
        77  1.004716E-06 -1.167020E+00 -5.403012E-01
        89  7.132697E+00  1.754354E+01 -8.870266E-01
        90 -8.695611E-07 -6.080895E-01 -1.525442E-01
        91  5.308393E-07  1.541511E+00  4.634049E-01
        92 -8.560154E-07 -1.167021E+00 -5.403012E-01
        98  3.991767E-06  1.712772E+01 -1.028403E+01
        99 -3.380907E-02 -4.857844E+00  6.243036E-02
       100  3.353424E-06 -7.701087E+00 -3.481763E-02
       101  3.380359E-02 -4.857847E+00  6.244756E-02
       102 -6.771203E-07  1.685347E+01  1.021750E+01
       124  8.357073E+00  1.978252E+01 -5.497178E-01
       125 -3.402421E-06  4.311628E+01  1.751457E+00
       126 -8.357072E+00  1.978254E+01 -5.497080E-01
       127  1.143282E-07 -1.216138E+00  3.051001E-01
       128  1.141946E-06 -2.615808E+00  9.358554E-01
       129 -5.509480E-08  3.082992E+00 -9.268130E-01
       130 -1.251244E-06 -2.615807E+00  9.358551E-01
       131  1.381364E-07 -2.334034E+00  1.080604E+00
       153 -3.767717E+00 -6.692544E+01 -1.452386E+00
       154 -1.677240E-01  4.398471E+01  4.078787E-02
       155  5.146451E+00 -6.468273E+01  1.367817E+00
       156 -2.930365E-06 -1.216157E+00 -6.201024E-06
       157 -1.899675E-06 -2.615810E+00  7.018891E-01
       158  1.449586E-06  3.083007E+00  2.902955E-06
       159 -3.775711E-08 -2.615825E+00 -7.018898E-01
       160 -2.976513E-07 -2.334038E+00 -8.446953E-07
       182  7.532167E+00  2.405863E+01  5.327539E-01
       183  8.882428E-06  3.739570E+01 -1.603328E+00
       184 -7.532164E+00  2.405865E+01  5.327794E-01
       185  3.173579E-07 -1.742499E+00 -3.050870E-01
       186  6.264704E-07 -3.142145E+00 -9.358487E-01
       187 -1.176033E-07  2.556708E+00  9.268100E-01
       188 -7.230706E-07 -3.142145E+00 -9.358486E-01
       189  1.029514E-07 -2.860359E+00 -1.080601E+00
       211 -5.146466E+00 -6.468272E+01  1.367844E+00
       212  1.677510E-01  4.398470E+01  4.078329E-02
       213  3.767708E+00 -6.692545E+01 -1.452415E+00
       214  2.322859E-06 -1.216158E+00 -5.743814E-06
       215 -3.827051E-07 -2.615825E+00 -7.018899E-01
       216 -1.162905E-06  3.083007E+00  2.677808E-06
       217  1.560946E-06 -2.615810E+00  7.018892E-01
       218  1.533664E-07 -2.334038E+00 -1.144621E-06
       250 -1.753587E-05 -1.379615E+02 -2.989055E+00
       251  6.075388E-01  5.827293E+01  5.302017E-02
       252  8.074914E-06  9.252621E+01  1.236293E-01
       253 -6.075616E-01  5.827295E+01  5.299234E-02
       254  7.180188E-06 -1.353751E+02  2.577650E+00
       255  8.217769E-07 -2.432317E+00 -1.518432E-05
       256  2.152210E-07 -5.231619E+00  1.403776E+00
       257  1.809441E-06 -5.231635E+00 -6.650264E-06
       258 -1.664802E-07  6.166016E+00  5.973294E-06
       259 -1.731036E-06 -5.231635E+00 -6.743425E-06
       260  4.177713E-07 -5.231653E+00 -1.403779E+00
       261 -1.160656E-07 -4.668078E+00 -2.329095E-06

 displacements (vx,vy,vz) for set NALL and time  0.2000000E-01

         5  0.000000E+00  0.000000E+00  0.000000E+00
         6  0.000000E+00  0.000000E+00  0.000000E+00
         7  0.000000E+00  0.000000E+00  0.000000E+00
         8  0.000000E+00  0.000000E+00  0.000000E+00
        21  0.000000E+00  0.000000E+00  0.000000E+00
        22  0.000000E+00  0.000000E+00  0.000000E+00
        23  0.000000E+00  0.000000E+00  0.000000E+00
        24  0.000000E+00  0.000000E+00  0.000000E+00
        25  0.000000E+00  0.000000E+00  0.000000E+00
        26  0.000000E+00  0.000000E+00  0.000000E+00
        27  0.000000E+00  0.000000E+00  0.000000E+00
        28  0.000000E+00  0.000000E+00  0.000000E+00
        29  0.000000E+00  0.000000E+00  0.000000E+00
        30  0.000000E+00  0.000000E+00  0.000000E+00
        31  0.000000E+00  0.000000E+00  0.000000E+00
        32  0.000000E+00  0.000000E+00  0.000000E+00
        44 -1.517144E-04  1.608583E-03 -2.339250E-04
        45 -3.548860E-05  1.249186E-03 -3.772946E-04
        46  4.166133E-05  9.139253E-04 -4.322831E-04
        47 -5.391333E-05  3.698650E-04 -2.840107E-04
        48  5.391558E-05  3.698703E-04 -2.840218E-04
        49 -4.165832E-05  9.139343E-04 -4.322967E-04
        50  3.553930E-05  1.249174E-03 -3.773053E-04
        51  1.517863E-04  1.608553E-03 -2.339531E-04
        74  1.497913E-04  1.614086E-03  2.341836E-04
        75  3.387559E-05  1.251670E-03  3.772991E-04
        76 -4.070571E-05  9.127695E-04  4.322981E-04
        77  5.441673E-05  3.690024E-04  2.840977E-04
        89 -1.497045E-04  1.614125E-03  2.341502E-04
        90 -3.382073E-05  1.251684E-03  3.772869E-04
        91  4.071064E-05  9.127631E-04  4.322818E-04
        92 -5.441327E-05  3.689987E-04  2.840852E-04
        98  0.000000E+00  0.000000E+00  0.000000E+00
        99  0.000000E+00  0.000000E+00  0.000000E+00
       100  0.000000E+00  0.000000E+00  0.000000E+00
       101  0.000000E+00  0.000000E+00  0.000000E+00
       102  0.000000E+00  0.000000E+00  0.000000E+00
       124  5.079257E-06  1.479807E-03 -2.204860E-04
       125  5.044811E-08  1.768499E-03 -2.313295E-04
       126 -5.003130E-06  1.479800E-03 -2.204625E-04
       127  1.242583E-08  1.301600E-03 -4.174113E-04
       128 -3.505242E-06  9.591251E-04 -4.635319E-04
       129  1.301114E-08  8.894833E-04 -4.723361E-04
       130  3.522155E-06  9.591252E-04 -4.635279E-04
       131 -6.483163E-10  3.754121E-04 -2.760351E-04
       153  1.250063E-04  1.916445E-03 -1.038688E-04
       154  5.204484E-07  1.693767E-03  9.492413E-08
       155 -1.247413E-04  1.918486E-03  1.041310E-04
       156  6.440828E-07  1.406612E-03  3.783333E-07
       157 -2.501309E-05  7.930249E-04 -1.860367E-04
       158 -4.135126E-07  8.098825E-04  1.752751E-07
       159  2.484924E-05  7.926893E-04  1.861380E-04
       160 -2.061276E-07  3.081933E-04 -2.144613E-08
       182  4.497772E-06  1.477490E-03  2.206928E-04
       183  5.775560E-08  1.772683E-03  2.314865E-04
       184 -4.407412E-06  1.477487E-03  2.206659E-04
       185  1.378305E-08  1.302963E-03  4.171718E-04
       186 -3.158881E-06  9.602368E-04  4.637126E-04
       187  1.439191E-08  8.894905E-04  4.724142E-04
       188  3.178112E-06  9.602384E-04  4.637074E-04
       189 -1.195216E-10  3.753290E-04  2.760735E-04
       211  1.247982E-04  1.918521E-03  1.040957E-04
       212 -4.653321E-07  1.693769E-03  9.729462E-08
       213 -1.249581E-04  1.916416E-03 -1.038873E-04
       214 -6.186084E-07  1.406617E-03  3.566147E-07
       215 -2.483205E-05  7.926831E-04  1.861250E-04
       216  4.367708E-07  8.098827E-04  1.577802E-07
       217  2.502945E-05  7.930326E-04 -1.860509E-04
       218  2.111155E-07  3.081939E-04 -2.573460E-08
       250  2.793691E-08  1.910075E-03 -1.030536E-04
       251 -4.091928E-07  1.209585E-03  5.000391E-08
       252 -1.916495E-09  1.542338E-03  7.449015E-08
       253  4.406945E-07  1.209584E-03  4.017213E-08
       254  3.193193E-08  1.911231E-03  1.034658E-04
       255  1.839695E-08  1.375129E-03  1.615078E-07
       256  7.172320E-09  7.832823E-04 -2.072721E-04
       257  2.751761E-07  9.140045E-04  5.301536E-08
       258  2.666448E-09  8.124097E-04  7.314213E-08
       259 -2.631070E-07  9.140042E-04  6.383863E-08
       260  7.746712E-09  7.834675E-04  2.073880E-04
       261  4.206549E-09  3.484845E-04  1.078214E-08

 forces (fx,fy,fz) for set NALL and time  0.2000000E-01

         5 -1.667609E+00  3.850692E-01  9.240721E-01
         6  1.667569E+00  3.851220E-01  9.241285E-01
         7 -1.673310E+00  3.578665E-01 -9.248837E-01
         8  1.673276E+00  3.579200E-01 -9.249797E-01
        21  1.036334E+00 -1.648519E+00  8.957302E+00
        22 -1.886733E-04  7.400166E-01  1.409956E+00
        23 -1.036113E+00 -1.648316E+00  8.957134E+00
        24  1.169789E+00 -5.895926E+00  4.716217E+00
        25 -1.346429E-03  2.439236E+00  2.844307E-03
        26 -1.158660E+00 -5.877770E+00 -4.718414E+00
        27  1.032226E+00 -1.615923E+00 -8.955267E+00
        28 -1.891657E-04  6.912556E-01 -1.416574E+00
        29 -1.032015E+00 -1.615743E+00 -8.955121E+00
        30  1.158626E+00 -5.878007E+00 -4.718138E+00
        31  1.243132E-03  2.439251E+00  2.838301E-03
        32 -1.169823E+00 -5.895724E+00  4.716413E+00
        44 -6.149226E+00 -1.511587E+01 -7.521912E-01
        45  1.523564E-06  5.208624E-01 -1.306730E-01
        46 -1.164845E-06 -1.320421E+00  3.969471E-01
        47  4.086913E-07  9.996487E-01 -4.628144E-01
        48 -4.516218E-07  9.996484E-01 -4.628145E-01
        49  1.047477E-06 -1.320422E+00  3.969471E-01
        50 -1.138018E-06  5.208629E-01 -1.306729E-01
        51  6.149480E+00 -1.511556E+01 -7.520929E-01
        74  6.173949E+00 -1.493590E+01  7.496363E-01
        75 -1.341078E-07  5.208807E-01  1.306670E-01
        76  3.495803E-07 -1.320435E+00 -3.969454E-01
        77 -8.624400E-07  9.996514E-01  4.628136E-01
        89 -6.173694E+00 -1.493625E+01  7.500149E-01
        90  7.432505E-07  5.208799E-01  1.306670E-01
        91 -4.547698E-07 -1.320434E+00 -3.969454E-01
        92  7.350652E-07  9.996518E-01  4.628136E-01
        98  1.217863E-05 -1.290007E+01  8.227703E+00
        99  5.540979E-03  3.926620E+00 -3.618995E-03
       100  2.301472E-04  5.310146E+00  2.038482E-03
       101 -5.627146E-03  3.926603E+00 -3.819153E-03
       102 -1.544552E-05 -1.287719E+01 -8.223572E+00
       124 -6.460035E+00 -1.696568E+01  4.640923E-01
       125  6.218717E-04 -3.110647E+01 -1.397025E+00
       126  6.459443E+00 -1.696626E+01  4.644796E-01
       127 -9.793222E-08  1.041725E+00 -2.613440E-01
       128 -9.787269E-07  2.240660E+00 -8.016390E-01
       129  4.719374E-08 -2.640843E+00  7.938935E-01
       130  1.072349E-06  2.240660E+00 -8.016388E-01
       131 -1.183255E-07  1.999297E+00 -9.256283E-01
       153  4.588012E+00  5.175895E+01  1.171170E+00
       154 -1.505739E-02 -3.299157E+01 -2.648977E-03
       155 -4.651377E+00  5.164028E+01 -1.165692E+00
       156  2.509947E-06  1.041741E+00  5.311480E-06
       157  1.627728E-06  2.240662E+00 -6.012272E-01
       158 -1.241679E-06 -2.640856E+00 -2.486489E-06
       159  3.192699E-08  2.240675E+00  6.012278E-01
       160  2.550611E-07  1.999301E+00  7.235548E-07
       182 -6.421319E+00 -1.721697E+01 -4.632178E-01
       183  6.333997E-04 -3.073898E+01  1.389113E+00
       184  6.420749E+00 -1.721762E+01 -4.638029E-01
       185 -2.718444E-07  1.069464E+00  2.613328E-01
       186 -5.371159E-07  2.268379E+00  8.016334E-01
       187  1.007376E-07 -2.613169E+00 -7.938909E-01
       188  6.198615E-07  2.268379E+00  8.016333E-01
       189 -8.818661E-08  2.027006E+00  9.256261E-01
       211  4.651429E+00  5.164202E+01 -1.166651E+00
       212  1.465516E-02 -3.299155E+01 -2.091523E-03
       213 -4.587945E+00  5.175724E+01  1.170942E+00
       214 -1.989567E-06  1.041741E+00  4.919841E-06
       215  3.282337E-07  2.240675E+00  6.012279E-01
       216  9.961132E-07 -2.640856E+00 -2.293632E-06
       217 -1.337579E-06  2.240662E+00 -6.012273E-01
       218 -1.314690E-07  1.999301E+00  9.804667E-07
       250  4.418489E-05  1.049194E+02  2.317357E+00
       251 -6.737766E-02 -4.737684E+01 -2.940949E-03
       252 -1.130950E-03 -6.966776E+01 -6.941693E-03
       253  6.813539E-02 -4.737689E+01 -3.480210E-03
       254  5.939792E-05  1.047057E+02 -2.294289E+00
       255 -7.039222E-07  2.083484E+00  1.300628E-05
       256 -1.843554E-07  4.481323E+00 -1.202452E+00
       257 -1.550007E-06  4.481336E+00  5.696316E-06
       258  1.426052E-07 -5.281712E+00 -5.116356E-06
       259  1.482845E-06  4.481336E+00  5.776116E-06
       260 -3.578569E-07  4.481352E+00  1.202455E+00
       261  9.941978E-08  3.998602E+00  1.995053E-06

 displacements (vx,vy,vz) for set NALL and time  0.3000000E-01

         5  0.000000E+00  0.000000E+00  0.000000E+00
         6  0.000000E+00  0.000000E+00  0.000000E+00
         7  0.000000E+00  0.000000E+00  0.000000E+00
         8  0.000000E+00  0.000000E+00  0.000000E+00
        21  0.000000E+00  0.000000E+00  0.000000E+00
        22  0.000000E+00  0.000000E+00  0.000000E+00
        23  0.000000E+00  0.000000E+00  0.000000E+00
        24  0.000000E+00  0.000000E+00  0.000000E+00
        25  0.000000E+00  0.000000E+00  0.000000E+00
        26  0.000000E+00  0.000000E+00  0.000000E+00
        27  0.000000E+00  0.000000E+00  0.000000E+00
        28  0.000000E+00  0.000000E+00  0.000000E+00
        29  0.000000E+00  0.000000E+00  0.000000E+00
        30  0.000000E+00  0.000000E+00  0.000000E+00
        31  0.000000E+00  0.000000E+00  0.000000E+00
        32  0.000000E+00  0.000000E+00  0.000000E+00
        44  1.213035E-04 -1.273721E-03  1.853988E-04
        45  2.803196E-05 -9.895109E-04  2.987670E-04
        46 -3.311962E-05 -7.241281E-04  3.421527E-04
        47  4.266208E-05 -2.932026E-04  2.250893E-04
        48 -4.266081E-05 -2.932056E-04  2.250945E-04
        49  3.312765E-05 -7.241350E-04  3.421585E-04
        50 -2.804813E-05 -9.895069E-04  2.987591E-04
        51 -1.213025E-04 -1.273710E-03  1.853895E-04
        74 -1.210898E-04 -1.274062E-03 -1.854179E-04
        75 -2.791229E-05 -9.896889E-04 -2.987698E-04
        76  3.297127E-05 -7.239588E-04 -3.421499E-04
        77 -4.271225E-05 -2.931389E-04 -2.250944E-04
        89  1.210443E-04 -1.274093E-03 -1.854044E-04
        90  2.788988E-05 -9.896982E-04 -2.987710E-04
        91 -3.297035E-05 -7.239574E-04 -3.421414E-04
        92  4.271065E-05 -2.931393E-04 -2.250882E-04
        98  0.000000E+00  0.000000E+00  0.000000E+00
        99  0.000000E+00  0.000000E+00  0.000000E+00
       100  0.000000E+00  0.000000E+00  0.000000E+00
       101  0.000000E+00  0.000000E+00  0.000000E+00
       102  0.000000E+00  0.000000E+00  0.000000E+00
       124 -3.962681E-06 -1.172124E-03  1.747009E-04
       125 -1.274963E-08 -1.401006E-03  1.833024E-04
       126  3.955120E-06 -1.172117E-03  1.746887E-04
       127  1.609097E-09 -1.031336E-03  3.303972E-04
       128  2.721249E-06 -7.597280E-04  3.671320E-04
       129 -4.287313E-09 -7.044210E-04  3.741792E-04
       130 -2.722984E-06 -7.597269E-04  3.671331E-04
       131  1.555936E-09 -2.974477E-04  2.186607E-04
       153 -1.000851E-04 -1.519503E-03  8.236456E-05
       154 -7.171391E-09 -1.344851E-03 -5.703992E-09
       155  1.000251E-04 -1.519041E-03 -8.236506E-05
       156 -3.309260E-08 -1.114374E-03 -3.315637E-08
       157  2.005514E-05 -6.284026E-04  1.473045E-04
       158  3.782229E-08 -6.417952E-04 -1.101578E-08
       159 -2.003449E-05 -6.284716E-04 -1.473108E-04
       160  7.380359E-09 -2.440228E-04  7.193033E-10
       182 -4.467710E-06 -1.171977E-03 -1.747081E-04
       183 -2.858832E-08 -1.401258E-03 -1.833230E-04
       184  4.422831E-06 -1.171980E-03 -1.746965E-04
       185 -3.845696E-09 -1.031377E-03 -3.303683E-04
       186  2.786445E-06 -7.597930E-04 -3.671404E-04
       187 -6.330189E-09 -7.044868E-04 -3.741761E-04
       188 -2.793790E-06 -7.597950E-04 -3.671377E-04
       189  1.329292E-10 -2.974427E-04 -2.186594E-04
       211 -1.000507E-04 -1.519068E-03 -8.233513E-05
       212 -1.113144E-08 -1.344856E-03 -2.259085E-08
       213  1.000864E-04 -1.519492E-03  8.235839E-05
       214  3.287457E-08 -1.114383E-03 -2.876724E-08
       215  2.002908E-05 -6.284696E-04 -1.473107E-04
       216 -4.682113E-08 -6.417956E-04 -5.907403E-09
       217 -2.005749E-05 -6.284077E-04  1.473075E-04
       218 -8.007490E-09 -2.440243E-04  8.209373E-10
       250 -2.641072E-09 -1.511688E-03  8.175138E-05
       251 -2.533920E-07 -9.577015E-04 -1.118796E-08
       252  1.097625E-08 -1.221671E-03  4.590021E-09
       253  2.525325E-07 -9.577005E-04  9.428470E-09
       254 -1.128307E-08 -1.512305E-03 -8.179705E-05
       255 -5.680803E-09 -1.089884E-03 -2.352004E-09
       256 -8.316770E-10 -6.204698E-04  1.642725E-04
       257  3.371397E-08 -7.243512E-04 -7.363312E-11
       258  2.053290E-09 -6.430171E-04 -5.454773E-09
       259 -3.509194E-08 -7.243505E-04 -5.527080E-09
       260 -1.623642E-09 -6.203905E-04 -1.642736E-04
       261 -1.655272E-09 -2.760044E-04 -8.312402E-10

 forces (fx,fy,fz) for set NALL and time  0.3000000E-01

         5  1.326475E+00 -2.933293E-01 -7.347015E-01
         6 -1.326466E+00 -2.933357E-01 -7.347783E-01
         7  1.324495E+00 -2.898888E-01  7.348429E-01
         8 -1.324489E+00 -2.898998E-01  7.349463E-01
        21 -8.214275E-01  1.296669E+00 -7.095973E+00
        22  1.264666E-04 -5.511942E-01 -1.125112E+00
        23  8.212990E-01  1.296554E+00 -7.095858E+00
        24 -9.183974E-01  4.653932E+00 -3.733785E+00
        25  6.715572E-04 -1.909507E+00 -2.605127E-04
        26  9.185071E-01  4.648999E+00  3.733885E+00
        27 -8.174148E-01  1.294642E+00  7.095687E+00
        28  1.032491E-04 -5.504080E-01  1.125834E+00
        29  8.173266E-01  1.294559E+00  7.095689E+00
        30 -9.184711E-01  4.649132E+00  3.733655E+00
        31 -5.986179E-04 -1.909536E+00 -2.242907E-04
        32  9.183830E-01  4.653876E+00 -3.733857E+00
        44  4.918613E+00  1.190070E+01  5.959846E-01
        45 -1.208756E-06 -4.142535E-01  1.039271E-01
        46  9.266230E-07  1.050161E+00 -3.157010E-01
        47 -3.285218E-07 -7.950432E-01  3.680867E-01
        48  3.626655E-07 -7.950430E-01  3.680869E-01
        49 -8.332787E-07  1.050161E+00 -3.157010E-01
        50  9.021247E-07 -4.142539E-01  1.039271E-01
        51 -4.918726E+00  1.190059E+01  5.957366E-01
        74 -4.904875E+00  1.187762E+01 -5.961643E-01
        75  1.035275E-07 -4.142681E-01 -1.039224E-01
        76 -2.781293E-07  1.050171E+00  3.156996E-01
        77  6.894182E-07 -7.950454E-01 -3.680861E-01
        89  4.904743E+00  1.187781E+01 -5.966623E-01
        90 -5.879908E-07 -4.142675E-01 -1.039224E-01
        91  3.617876E-07  1.050171E+00  3.156996E-01
        92 -5.881139E-07 -7.950458E-01 -3.680861E-01
        98 -2.805670E-05  1.016783E+01 -6.514756E+00
        99  1.678829E-03 -3.110484E+00  1.299568E-04
       100 -1.632129E-04 -4.161081E+00 -1.967070E-05
       101 -1.599959E-03 -3.110468E+00  1.128451E-04
       102  2.412363E-06  1.017129E+01  6.514549E+00
       124  5.124989E+00  1.350174E+01 -3.685652E-01
       125 -3.113911E-04  2.442228E+01  1.105774E+00
       126 -5.124632E+00  1.350202E+01 -3.690956E-01
       127  7.788914E-08 -8.285072E-01  2.078527E-01
       128  7.794322E-07 -1.782047E+00  6.375617E-01
       129 -3.753542E-08  2.100322E+00 -6.314014E-01
       130 -8.538905E-07 -1.782047E+00  6.375615E-01
       131  9.410711E-08 -1.590086E+00  7.361732E-01
       153 -3.706697E+00 -4.091723E+01 -9.273596E-01
       154 -6.466996E-03  2.602709E+01 -1.924403E-04
       155  3.706469E+00 -4.088142E+01  9.274976E-01
       156 -1.995989E-06 -8.285202E-01 -4.224026E-06
       157 -1.295484E-06 -1.782049E+00  4.781696E-01
       158  9.875144E-07  2.100332E+00  1.977366E-06
       159 -2.459314E-08 -1.782059E+00 -4.781701E-01
       160 -2.029959E-07 -1.590089E+00 -5.754625E-07
       182  5.094786E+00  1.351551E+01  3.694023E-01
       183 -3.520205E-04  2.442178E+01 -1.105963E+00
       184 -5.094473E+00  1.351593E+01  3.697979E-01
       185  2.162056E-07 -8.299959E-01 -2.078438E-01
       186  4.281196E-07 -1.783520E+00 -6.375571E-01
       187 -8.012021E-08  2.098886E+00  6.313994E-01
       188 -4.939274E-07 -1.783520E+00 -6.375571E-01
       189  7.013701E-08 -1.591550E+00 -7.361714E-01
       211 -3.706533E+00 -4.088234E+01  9.288973E-01
       212  6.596471E-03  2.602708E+01 -9.230166E-04
       213  3.706657E+00 -4.091638E+01 -9.271929E-01
       214  1.582122E-06 -8.285203E-01 -3.912548E-06
       215 -2.618492E-07 -1.782059E+00 -4.781701E-01
       216 -7.922131E-07  2.100332E+00  1.823983E-06
       217  1.064723E-06 -1.782049E+00  4.781696E-01
       218  1.047008E-07 -1.590089E+00 -7.797907E-07
       250  2.417284E-05 -8.274802E+01 -1.831048E+00
       251 -1.610200E-02  3.754822E+01  1.178917E-04
       252  5.631764E-04  5.494702E+01  4.321070E-04
       253  1.577048E-02  3.754827E+01  1.050850E-03
       254 -5.361679E-05 -8.278022E+01  1.828469E+00
       255  5.598482E-07 -1.657042E+00 -1.034365E-05
       256  1.466235E-07 -3.564098E+00  9.563375E-01
       257  1.232853E-06 -3.564108E+00 -4.530130E-06
       258 -1.134196E-07  4.200665E+00  4.068762E-06
       259 -1.179435E-06 -3.564108E+00 -4.593596E-06
       260  2.846134E-07 -3.564121E+00 -9.563395E-01
       261 -7.907036E-08 -3.180179E+00 -1.586693E-06

 displacements (vx,vy,vz) for set NALL and time  0.4000000E-01

         5  0.000000E+00  0.000000E+00  0.000000E+00
         6  0.000000E+00  0.000000E+00  0.000000E+00
         7  0.000000E+00  0.000000E+00  0.000000E+00
         8  0.000000E+00  0.000000E+00  0.000000E+00
        21  0.000000E+00  0.000000E+00  0.000000E+00
        22  0.000000E+00  0.000000E+00  0.000000E+00
        23  0.000000E+00  0.000000E+00  0.000000E+00
        24  0.000000E+00  0.000000E+00  0.000000E+00
        25  0.000000E+00  0.000000E+00  0.000000E+00
        26  0.000000E+00  0.000000E+00  0.000000E+00
        27  0.000000E+00  0.000000E+00  0.000000E+00
        28  0.000000E+00  0.000000E+00  0.000000E+00
        29  0.000000E+00  0.000000E+00  0.000000E+00
        30  0.000000E+00  0.000000E+00  0.000000E+00
        31  0.000000E+00  0.000000E+00  0.000000E+00
        32  0.000000E+00  0.000000E+00  0.000000E+00
        44 -9.419496E-05  9.885725E-04 -1.439048E-04
        45 -2.175568E-05  7.680403E-04 -2.319168E-04
        46  2.569098E-05  5.620524E-04 -2.655617E-04
        47 -3.311229E-05  2.276037E-04 -1.747179E-04
        48  3.311488E-05  2.276065E-04 -1.747252E-04
        49 -2.568804E-05  5.620554E-04 -2.655697E-04
        50  2.179478E-05  7.680288E-04 -2.319234E-04
        51  9.425274E-05  9.885337E-04 -1.439197E-04
        74  9.406394E-05  9.890084E-04  1.439259E-04
        75  2.163597E-05  7.682499E-04  2.319117E-04
        76 -2.560877E-05  5.619386E-04  2.655577E-04
        77  3.315419E-05  2.275391E-04  1.747260E-04
        89 -9.400810E-05  9.890452E-04  1.439109E-04
        90 -2.160057E-05  7.682545E-04  2.319052E-04
        91  2.560810E-05  5.619335E-04  2.655469E-04
        92 -3.315300E-05  2.275351E-04  1.747173E-04
        98  0.000000E+00  0.000000E+00  0.000000E+00
        99  0.000000E+00  0.000000E+00  0.000000E+00
       100  0.000000E+00  0.000000E+00  0.000000E+00
       101  0.000000E+00  0.000000E+00  0.000000E+00
       102  0.000000E+00  0.000000E+00  0.000000E+00
       124  3.387923E-06  9.098793E-04 -1.356137E-04
       125  3.956807E-08  1.087388E-03 -1.422992E-04
       126 -3.327532E-06  9.098812E-04 -1.356034E-04
       127  1.049870E-08  8.005083E-04 -2.564498E-04
       128 -2.155913E-06  5.896781E-04 -2.849712E-04
       129  1.014926E-08  5.468138E-04 -2.904484E-04
       130  2.169439E-06  5.896803E-04 -2.849686E-04
       131 -2.049083E-11  2.308865E-04 -1.697238E-04
       153  7.778403E-05  1.179306E-03 -6.392297E-05
       154  5.660692E-08  1.044239E-03 -1.459411E-09
       155 -7.772432E-05  1.179476E-03  6.393623E-05
       156  6.536458E-08  8.650217E-04  2.747149E-08
       157 -1.558546E-05  4.878249E-04 -1.143301E-04
       158 -2.276715E-08  4.981670E-04  1.736065E-08
       159  1.559203E-05  4.877826E-04  1.143385E-04
       160 -1.404114E-08  1.893869E-04  1.523725E-09
       182  3.310315E-06  9.096780E-04  1.356141E-04
       183  3.937576E-08  1.087713E-03  1.423018E-04
       184 -3.251318E-06  9.096787E-04  1.355990E-04
       185  7.470845E-09  8.005962E-04  2.564109E-04
       186 -2.123126E-06  5.897265E-04  2.849751E-04
       187  8.856102E-09  5.467410E-04  2.904402E-04
       188  2.133555E-06  5.897276E-04  2.849717E-04
       189 -8.080246E-10  2.308602E-04  1.697198E-04
       211  7.775866E-05  1.179504E-03  6.391346E-05
       212 -2.086773E-08  1.044235E-03 -3.288632E-10
       213 -7.774960E-05  1.179273E-03 -6.393429E-05
       214 -4.888321E-08  8.650213E-04  1.253168E-08
       215 -1.558173E-05  4.877763E-04  1.143304E-04
       216  3.901407E-08  4.981646E-04  5.242627E-09
       217  1.559765E-05  4.878277E-04 -1.143395E-04
       218  1.727115E-08  1.893863E-04 -1.521015E-09
       250  1.973265E-08  1.173581E-03 -6.347324E-05
       251 -3.970566E-08  7.433283E-04  7.601520E-10