    1C
    1UUSER                                                              
    1UDATE              10.july.2018                                    
    1UTIME              17:17:39                                        
    1UHOST                                                              
    1UPGM               CalculiX                                        
    1UVERSION           Version 2.13                             
    1UCOMPILETIME       jue jun 14 00:40:39 CEST 2018                    
    1UDIR                                                               
    1UDBN                                                               
    1UMAT    1EL                                                        
    2C                            81                                     1
 -1         5 0.00000E+00 0.00000E+00 8.00000E+00
 -1         6 1.00000E+00 0.00000E+00 8.00000E+00
 -1         7 1.00000E+00 1.00000E+00 8.00000E+00
 -1         8 0.00000E+00 1.00000E+00 8.00000E+00
 -1        21 2.50000E-01 0.00000E+00 8.00000E+00
 -1        22 5.00000E-01 0.00000E+00 8.00000E+00
 -1        23 7.50000E-01 0.00000E+00 8.00000E+00
 -1        24 1.00000E+00 2.50000E-01 8.00000E+00
 -1        25 1.00000E+00 5.00000E-01 8.00000E+00
 -1        26 1.00000E+00 7.50000E-01 8.00000E+00
 -1        27 7.50000E-01 1.00000E+00 8.00000E+00
 -1        28 5.00000E-01 1.00000E+00 8.00000E+00
 -1        29 2.50000E-01 1.00000E+00 8.00000E+00
 -1        30 0.00000E+00 7.50000E-01 8.00000E+00
 -1        31 0.00000E+00 5.00000E-01 8.00000E+00
 -1        32 0.00000E+00 2.50000E-01 8.00000E+00
 -1        44 1.00000E+00 0.00000E+00 6.00000E+00
 -1        45 1.00000E+00 0.00000E+00 6.50000E+00
 -1        46 1.00000E+00 0.00000E+00 7.00000E+00
 -1        47 1.00000E+00 0.00000E+00 7.50000E+00
 -1        48 0.00000E+00 0.00000E+00 7.50000E+00
 -1        49 0.00000E+00 0.00000E+00 7.00000E+00
 -1        50 0.00000E+00 0.00000E+00 6.50000E+00
 -1        51 0.00000E+00 0.00000E+00 6.00000E+00
 -1        74 1.00000E+00 1.00000E+00 6.00000E+00
 -1        75 1.00000E+00 1.00000E+00 6.50000E+00
 -1        76 1.00000E+00 1.00000E+00 7.00000E+00
 -1        77 1.00000E+00 1.00000E+00 7.50000E+00
 -1        89 0.00000E+00 1.00000E+00 6.00000E+00
 -1        90 0.00000E+00 1.00000E+00 6.50000E+00
 -1        91 0.00000E+00 1.00000E+00 7.00000E+00
 -1        92 0.00000E+00 1.00000E+00 7.50000E+00
 -1        98 5.00000E-01 2.50000E-01 8.00000E+00
 -1        99 2.50000E-01 5.00000E-01 8.00000E+00
 -1       100 5.00000E-01 5.00000E-01 8.00000E+00
 -1       101 7.50000E-01 5.00000E-01 8.00000E+00
 -1       102 5.00000E-01 7.50000E-01 8.00000E+00
 -1       124 2.50000E-01 0.00000E+00 6.00000E+00
 -1       125 5.00000E-01 0.00000E+00 6.00000E+00
 -1       126 7.50000E-01 0.00000E+00 6.00000E+00
 -1       127 5.00000E-01 0.00000E+00 6.50000E+00
 -1       128 2.50000E-01 0.00000E+00 7.00000E+00
 -1       129 5.00000E-01 0.00000E+00 7.00000E+00
 -1       130 7.50000E-01 0.00000E+00 7.00000E+00
 -1       131 5.00000E-01 0.00000E+00 7.50000E+00
 -1       153 1.00000E+00 2.50000E-01 6.00000E+00
 -1       154 1.00000E+00 5.00000E-01 6.00000E+00
 -1       155 1.00000E+00 7.50000E-01 6.00000E+00
 -1       156 1.00000E+00 5.00000E-01 6.50000E+00
 -1       157 1.00000E+00 2.50000E-01 7.00000E+00
 -1       158 1.00000E+00 5.00000E-01 7.00000E+00
 -1       159 1.00000E+00 7.50000E-01 7.00000E+00
 -1       160 1.00000E+00 5.00000E-01 7.50000E+00
 -1       182 7.50000E-01 1.00000E+00 6.00000E+00
 -1       183 5.00000E-01 1.00000E+00 6.00000E+00
 -1       184 2.50000E-01 1.00000E+00 6.00000E+00
 -1       185 5.00000E-01 1.00000E+00 6.50000E+00
 -1       186 7.50000E-01 1.00000E+00 7.00000E+00
 -1       187 5.00000E-01 1.00000E+00 7.00000E+00
 -1       188 2.50000E-01 1.00000E+00 7.00000E+00
 -1       189 5.00000E-01 1.00000E+00 7.50000E+00
 -1       211 0.00000E+00 7.50000E-01 6.00000E+00
 -1       212 0.00000E+00 5.00000E-01 6.00000E+00
 -1       213 0.00000E+00 2.50000E-01 6.00000E+00
 -1       214 0.00000E+00 5.00000E-01 6.50000E+00
 -1       215 0.00000E+00 7.50000E-01 7.00000E+00
 -1       216 0.00000E+00 5.00000E-01 7.00000E+00
 -1       217 0.00000E+00 2.50000E-01 7.00000E+00
 -1       218 0.00000E+00 5.00000E-01 7.50000E+00
 -1       250 5.00000E-01 2.50000E-01 6.00000E+00
 -1       251 2.50000E-01 5.00000E-01 6.00000E+00
 -1       252 5.00000E-01 5.00000E-01 6.00000E+00
 -1       253 7.50000E-01 5.00000E-01 6.00000E+00
 -1       254 5.00000E-01 7.50000E-01 6.00000E+00
 -1       255 5.00000E-01 5.00000E-01 6.50000E+00
 -1       256 5.00000E-01 2.50000E-01 7.00000E+00
 -1       257 2.50000E-01 5.00000E-01 7.00000E+00
 -1       258 5.00000E-01 5.00000E-01 7.00000E+00
 -1       259 7.50000E-01 5.00000E-01 7.00000E+00
 -1       260 5.00000E-01 7.50000E-01 7.00000E+00
 -1       261 5.00000E-01 5.00000E-01 7.50000E+00
 -3
    3C                             8                                     1
 -1        25    4    0    1
 -2        51       125       252       212        49       129       258       216       124       250
 -2       251       213        50       127       255       214       128       256       257       217
 -1        26    4    0    1
 -2       125        44       154       252       129        46       158       258       126       153
 -2       253       250       127        45       156       255       130       157       259       256
 -1        27    4    0    1
 -2       212       252       183        89       216       258       187        91       251       254
 -2       184       211       214       255       185        90       257       260       188       215
 -1        28    4    0    1
 -2       252       154        74       183       258       158        76       187       253       155
 -2       182       254       255       156        75       185       259       159       186       260
 -1        29    4    0    1
 -2        49       129       258       216         5        22       100        31       128       256
 -2       257       217        48       131       261       218        21        98        99        32
 -1        30    4    0    1
 -2       129        46       158       258        22         6        25       100       130       157
 -2       259       256       131        47       160       261        23        24       101        98
 -1        31    4    0    1
 -2       216       258       187        91        31       100        28         8       257       260
 -2       188       215       218       261       189        92        99       102        29        30
 -1        32    4    0    1
 -2       258       158        76       187       100        25         7        28       259       159
 -2       186       260       261       160        77       189       101        26        27       102
 -3
    1PSTEP                         1           1           1          
  100CL  101 1.00000E-02          81                     1    1           1
 -4  DISP        4    1
 -5  D1          1    2    1    0
 -5  D2          1    2    2    0
 -5  D3          1    2    3    0
 -5  ALL         1    2    0    0    1ALL
 -1         5 0.00000E+00 0.00000E+00 0.00000E+00
 -1         6 0.00000E+00 0.00000E+00 0.00000E+00
 -1         7 0.00000E+00 0.00000E+00 0.00000E+00
 -1         8 0.00000E+00 0.00000E+00 0.00000E+00
 -1        21 0.00000E+00 0.00000E+00 0.00000E+00
 -1        22 0.00000E+00 0.00000E+00 0.00000E+00
 -1        23 0.00000E+00 0.00000E+00 0.00000E+00
 -1        24 0.00000E+00 0.00000E+00 0.00000E+00
 -1        25 0.00000E+00 0.00000E+00 0.00000E+00
 -1        26 0.00000E+00 0.00000E+00 0.00000E+00
 -1        27 0.00000E+00 0.00000E+00 0.00000E+00
 -1        28 0.00000E+00 0.00000E+00 0.00000E+00
 -1        29 0.00000E+00 0.00000E+00 0.00000E+00
 -1        30 0.00000E+00 0.00000E+00 0.00000E+00
 -1        31 0.00000E+00 0.00000E+00 0.00000E+00
 -1        32 0.00000E+00 0.00000E+00 0.00000E+00
 -1        44 5.96508E-05-1.99609E-03 2.77134E-04
 -1        45 7.94824E-06-1.52041E-03 4.88140E-04
 -1        46-3.66363E-05-1.10672E-03 5.13013E-04
 -1        47 6.47026E-05-4.61133E-04 3.44926E-04
 -1        48-6.47026E-05-4.61134E-04 3.44926E-04
 -1        49 3.66367E-05-1.10672E-03 5.13013E-04
 -1        50-7.94858E-06-1.52041E-03 4.88139E-04
 -1        51-5.96472E-05-1.99608E-03 2.77128E-04
 -1        74-5.14396E-05-2.02747E-03-2.80726E-04
 -1        75-2.37464E-06-1.53205E-03-4.90282E-04
 -1        76 3.21813E-05-1.10414E-03-5.14351E-04
 -1        77-6.78837E-05-4.55025E-04-3.45739E-04
 -1        89 5.14362E-05-2.02747E-03-2.80720E-04
 -1        90 2.37508E-06-1.53205E-03-4.90281E-04
 -1        91-3.21817E-05-1.10414E-03-5.14351E-04
 -1        92 6.78838E-05-4.55025E-04-3.45739E-04
 -1        98 0.00000E+00 0.00000E+00 0.00000E+00
 -1        99 0.00000E+00 0.00000E+00 0.00000E+00
 -1       100 0.00000E+00 0.00000E+00 0.00000E+00
 -1       101 0.00000E+00 0.00000E+00 0.00000E+00
 -1       102 0.00000E+00 0.00000E+00 0.00000E+00
 -1       124-6.12192E-06-1.80919E-03 2.63127E-04
 -1       125 7.13642E-10-2.01125E-03 2.79053E-04
 -1       126 6.12416E-06-1.80919E-03 2.63129E-04
 -1       127-1.21357E-10-1.53470E-03 4.55176E-04
 -1       128 1.54887E-05-1.15381E-03 5.50391E-04
 -1       129 3.85401E-11-1.09883E-03 5.62909E-04
 -1       130-1.54885E-05-1.15381E-03 5.50392E-04
 -1       131 1.53376E-11-4.60094E-04 3.29518E-04
 -1       153-1.01396E-04-2.40658E-03 1.26788E-04
 -1       154-2.91412E-06-2.14649E-03-9.29538E-07
 -1       155 1.01554E-04-2.41691E-03-1.31094E-04
 -1       156-1.98899E-06-1.58883E-03-2.83042E-06
 -1       157 1.47334E-05-1.00781E-03 2.16247E-04
 -1       158 3.05614E-06-1.08458E-03-3.95611E-07
 -1       159-1.14751E-05-1.00856E-03-2.16622E-04
 -1       160 1.31021E-06-3.91075E-04 7.68803E-07
 -1       182-6.69705E-06-1.79636E-03-2.64701E-04
 -1       183-6.30883E-10-2.03775E-03-2.80603E-04
 -1       184 6.69503E-06-1.79636E-03-2.64698E-04
 -1       185 1.52291E-10-1.54917E-03-4.55312E-04
 -1       186 1.45943E-05-1.16805E-03-5.54272E-04
 -1       187-6.55815E-12-1.11029E-03-5.67546E-04
 -1       188-1.45946E-05-1.16805E-03-5.54272E-04
 -1       189-6.67555E-12-4.62015E-04-3.31258E-04
 -1       211-1.01556E-04-2.41691E-03-1.31092E-04
 -1       212 2.91425E-06-2.14649E-03-9.29548E-07
 -1       213 1.01398E-04-2.40658E-03 1.26786E-04
 -1       214 1.98907E-06-1.58883E-03-2.83044E-06
 -1       215 1.14750E-05-1.00856E-03-2.16622E-04
 -1       216-3.05615E-06-1.08458E-03-3.95634E-07
 -1       217-1.47332E-05-1.00781E-03 2.16247E-04
 -1       218-1.31021E-06-3.91075E-04 7.68791E-07
 -1       250 6.02136E-10-2.03289E-03 1.10477E-04
 -1       251-4.16534E-07-1.52480E-03 3.35226E-06
 -1       252 2.22388E-11-1.54151E-03 1.23114E-06
 -1       253 4.16581E-07-1.52481E-03 3.35227E-06
 -1       254-5.22563E-10-2.04900E-03-1.23201E-04
 -1       255 1.59369E-11-1.69462E-03-1.11469E-06
 -1       256-4.10227E-11-9.47959E-04 2.52061E-04
 -1       257-1.54801E-06-1.09200E-03-1.28933E-06
 -1       258 1.20086E-11-9.35975E-04-1.11808E-06
 -1       259 1.54803E-06-1.09200E-03-1.28932E-06
 -1       260 6.39373E-11-9.52460E-04-2.52310E-04
 -1       261 3.59083E-12-4.35299E-04 8.27535E-08
 -3
    1PSTEP                         2           2           1          
  100CL  102 2.00000E-02          81                     1    2           1
 -4  DISP        4    1
 -5  D1          1    2    1    0
 -5  D2          1    2    2    0
 -5  D3          1    2    3    0
 -5  ALL         1    2    0    0    1ALL
 -1         5 0.00000E+00 0.00000E+00 0.00000E+00
 -1         6 0.00000E+00 0.00000E+00 0.00000E+00
 -1         7 0.00000E+00 0.00000E+00 0.00000E+00
 -1         8 0.00000E+00 0.00000E+00 0.00000E+00
 -1        21 0.00000E+00 0.00000E+00 0.00000E+00
 -1        22 0.00000E+00 0.00000E+00 0.00000E+00
 -1        23 0.00000E+00 0.00000E+00 0.00000E+00
 -1        24 0.00000E+00 0.00000E+00 0.00000E+00
 -1        25 0.00000E+00 0.00000E+00 0.00000E+00
 -1        26 0.00000E+00 0.00000E+00 0.00000E+00
 -1        27 0.00000E+00 0.00000E+00 0.00000E+00
 -1        28 0.00000E+00 0.00000E+00 0.00000E+00
 -1        29 0.00000E+00 0.00000E+00 0.00000E+00
 -1        30 0.00000E+00 0.00000E+00 0.00000E+00
 -1        31 0.00000E+00 0.00000E+00 0.00000E+00
 -1        32 0.00000E+00 0.00000E+00 0.00000E+00
 -1        44-1.48361E-04 1.63964E-03-2.39614E-04
 -1        45-2.75111E-05 1.22549E-03-4.19126E-04
 -1        46 3.13183E-05 9.40077E-04-4.43829E-04
 -1        47-4.69488E-05 3.79984E-04-2.84026E-04
 -1        48 4.69482E-05 3.79984E-04-2.84024E-04
 -1        49-3.13137E-05 9.40082E-04-4.43828E-04
 -1        50 2.75068E-05 1.22548E-03-4.19141E-04
 -1        51 1.48393E-04 1.63967E-03-2.39666E-04
 -1        74 1.40865E-04 1.66455E-03 2.37888E-04
 -1        75 2.15954E-05 1.23693E-03 4.18354E-04
 -1        76-2.78356E-05 9.33523E-04 4.43700E-04
 -1        77 4.88360E-05 3.76029E-04 2.84246E-04
 -1        89-1.40897E-04 1.66459E-03 2.37941E-04
 -1        90-2.15911E-05 1.23692E-03 4.18369E-04
 -1        91 2.78310E-05 9.33528E-04 4.43699E-04
 -1        92-4.88354E-05 3.76029E-04 2.84244E-04
 -1        98 0.00000E+00 0.00000E+00 0.00000E+00
 -1        99 0.00000E+00 0.00000E+00 0.00000E+00
 -1       100 0.00000E+00 0.00000E+00 0.00000E+00
 -1       101 0.00000E+00 0.00000E+00 0.00000E+00
 -1       102 0.00000E+00 0.00000E+00 0.00000E+00
 -1       124 7.47213E-05 1.50902E-03-2.33639E-04
 -1       125 4.23215E-09 1.68110E-03-2.25824E-04
 -1       126-7.47037E-05 1.50900E-03-2.33621E-04
 -1       127-6.62034E-10 1.28687E-03-3.77854E-04
 -1       128-1.84856E-05 9.60745E-04-4.64038E-04
 -1       129-2.45727E-10 8.98049E-04-4.72466E-04
 -1       130 1.84878E-05 9.60744E-04-4.64037E-04
 -1       131 1.50460E-10 3.77287E-04-2.77204E-04
 -1       153 8.18206E-05 1.99194E-03-1.13084E-04
 -1       154 4.29645E-06 1.70595E-03 1.12977E-07
 -1       155-8.20662E-05 1.99850E-03 1.13919E-04
 -1       156 3.05387E-06 1.32607E-03 1.23701E-06
 -1       157-2.16383E-05 8.23701E-04-1.88223E-04
 -1       158-2.23612E-06 8.73947E-04 1.55779E-07
 -1       159 2.12658E-05 8.21990E-04 1.87665E-04
 -1       160-8.31065E-07 3.24860E-04-8.77899E-08
 -1       182 7.60520E-05 1.49477E-03 2.31137E-04
 -1       183-4.30181E-09 1.69798E-03 2.23539E-04
 -1       184-7.60697E-05 1.49479E-03 2.31155E-04
 -1       185 6.39828E-10 1.29517E-03 3.75955E-04
 -1       186-1.80019E-05 9.64025E-04 4.65476E-04
 -1       187 2.17504E-10 8.93852E-04 4.73975E-04
 -1       188 1.79997E-05 9.64026E-04 4.65478E-04
 -1       189-1.57456E-10 3.75270E-04 2.77552E-04
 -1       211 8.20480E-05 1.99851E-03 1.13937E-04
 -1       212-4.29655E-06 1.70596E-03 1.12976E-07
 -1       213-8.18024E-05 1.99196E-03-1.13103E-04
 -1       214-3.05394E-06 1.32607E-03 1.23702E-06
 -1       215-2.12675E-05 8.21992E-04 1.87667E-04
 -1       216 2.23613E-06 8.73947E-04 1.55798E-07
 -1       217 2.16399E-05 8.23703E-04-1.88225E-04
 -1       218 8.31069E-07 3.24860E-04-8.77810E-08
 -1       250 3.94212E-09 1.75025E-03-8.68320E-05
 -1       251-6.94236E-07 1.23886E-03-1.98666E-06
 -1       252-1.52550E-11 1.37363E-03-1.75870E-07
 -1       253 6.94205E-07 1.23885E-03-1.98666E-06
 -1       254-4.00761E-09 1.75946E-03 9.27066E-05
 -1       255-1.17944E-11 1.41228E-03 1.18929E-07
 -1       256-6.54745E-10 7.78158E-04-2.11322E-04
 -1       257 7.52215E-07 9.02217E-04 3.68770E-07
 -1       258-9.55088E-12 7.76919E-04 1.99197E-07
 -1       259-7.52226E-07 9.02218E-04 3.68761E-07
 -1       260 6.36027E-10 7.75770E-04 2.10667E-04
 -1       261-3.10857E-12 3.48773E-04 3.29571E-07
 -3
    1PSTEP                         3           3           1          
  100CL  103 3.00000E-02          81                     1    3           1
 -4  DISP        4    1
 -5  D1          1    2    1    0
 -5  D2          1    2    2    0
 -5  D3          1    2    3    0
 -5  ALL         1    2    0    0    1ALL
 -1         5 0.00000E+00 0.00000E+00 0.00000E+00
 -1         6 0.00000E+00 0.00000E+00 0.00000E+00
 -1         7 0.00000E+00 0.00000E+00 0.00000E+00
 -1         8 0.00000E+00 0.00000E+00 0.00000E+00
 -1        21 0.00000E+00 0.00000E+00 0.00000E+00
 -1        22 0.00000E+00 0.00000E+00 0.00000E+00
 -1        23 0.00000E+00 0.00000E+00 0.00000E+00
 -1        24 0.00000E+00 0.00000E+00 0.00000E+00
 -1        25 0.00000E+00 0.00000E+00 0.00000E+00
 -1        26 0.00000E+00 0.00000E+00 0.00000E+00
 -1        27 0.00000E+00 0.00000E+00 0.00000E+00
 -1        28 0.00000E+00 0.00000E+00 0.00000E+00
 -1        29 0.00000E+00 0.00000E+00 0.00000E+00
 -1        30 0.00000E+00 0.00000E+00 0.00000E+00
 -1        31 0.00000E+00 0.00000E+00 0.00000E+00
 -1        32 0.00000E+00 0.00000E+00 0.00000E+00
 -1        44 4.14995E-05-1.38152E-03 1.93540E-04
 -1        45 1.76545E-05-1.04243E-03 3.44469E-04
 -1        46-2.33348E-05-7.49921E-04 3.71392E-04
 -1        47 4.35249E-05-3.07756E-04 2.40473E-04
 -1        48-4.35271E-05-3.07758E-04 2.40479E-04
 -1        49 2.33525E-05-7.49903E-04 3.71398E-04
 -1        50-1.76709E-05-1.04244E-03 3.44413E-04
 -1        51-4.13751E-05-1.38140E-03 1.93335E-04
 -1        74-4.11630E-05-1.40681E-03-2.02381E-04
 -1        75-1.16611E-05-1.05051E-03-3.45832E-04
 -1        76 1.91145E-05-7.45672E-04-3.71308E-04
 -1        77-4.49839E-05-3.04432E-04-2.40679E-04
 -1        89 4.10388E-05-1.40668E-03-2.02176E-04
 -1        90 1.16776E-05-1.05053E-03-3.45776E-04
 -1        91-1.91323E-05-7.45655E-04-3.71313E-04
 -1        92 4.49861E-05-3.04434E-04-2.40685E-04
 -1        98 0.00000E+00 0.00000E+00 0.00000E+00
 -1        99 0.00000E+00 0.00000E+00 0.00000E+00
 -1       100 0.00000E+00 0.00000E+00 0.00000E+00
 -1       101 0.00000E+00 0.00000E+00 0.00000E+00
 -1       102 0.00000E+00 0.00000E+00 0.00000E+00
 -1       124-1.03544E-05-1.25105E-03 2.10903E-04
 -1       125 1.73130E-08-1.37897E-03 1.79531E-04
 -1       126 1.04236E-05-1.25112E-03 2.10975E-04
 -1       127-2.75019E-09-1.06756E-03 3.22654E-04
 -1       128 1.13293E-05-7.77645E-04 3.83183E-04
 -1       129-7.22313E-10-7.35381E-04 3.96383E-04
 -1       130-1.13206E-05-7.77652E-04 3.83190E-04
 -1       131 5.80927E-10-3.08460E-04 2.31867E-04
 -1       153-7.54595E-05-1.66374E-03 1.04907E-04
 -1       154-2.71687E-06-1.47904E-03 1.92468E-07
 -1       155 7.23780E-05-1.67166E-03-1.09052E-04
 -1       156-2.02679E-06-1.08714E-03-1.14023E-06
 -1       157 1.21810E-05-6.78084E-04 1.55730E-04
 -1       158 1.67220E-06-7.28801E-04-1.04572E-07
 -1       159-1.24477E-05-6.77077E-04-1.55589E-04
 -1       160 3.98872E-07-2.59692E-04 8.74311E-08
 -1       182-1.32158E-05-1.24279E-03-2.11764E-04
 -1       183-1.72629E-08-1.39357E-03-1.77569E-04
 -1       184 1.31467E-05-1.24272E-03-2.11692E-04
 -1       185 2.77217E-09-1.07411E-03-3.22109E-04
 -1       186 9.98683E-06-7.80653E-04-3.85334E-04
 -1       187 7.38612E-10-7.31528E-04-3.98521E-04
 -1       188-9.99549E-06-7.80647E-04-3.85327E-04
 -1       189-5.75292E-10-3.06720E-04-2.32096E-04
 -1       211-7.24490E-05-1.67159E-03-1.08980E-04
 -1       212 2.71698E-06-1.47900E-03 1.92445E-07
 -1       213 7.55305E-05-1.66367E-03 1.04835E-04
 -1       214 2.02684E-06-1.08715E-03-1.14025E-06
 -1       215 1.24414E-05-6.77068E-04-1.55582E-04
 -1       216-1.67221E-06-7.28802E-04-1.04586E-07
 -1       217-1.21747E-05-6.78075E-04 1.55723E-04
 -1       218-3.98876E-07-2.59691E-04 8.74231E-08
 -1       250 1.59112E-08-1.42684E-03 8.27572E-05
 -1       251 2.06713E-07-1.08248E-03 2.56964E-06
 -1       252 1.28832E-11-1.12614E-03 1.18799E-06
 -1       253-2.06678E-07-1.08252E-03 2.56965E-06
 -1       254-1.58642E-08-1.43581E-03-8.85717E-05
 -1       255 1.06477E-11-1.15618E-03 3.53163E-07
 -1       256-2.43802E-09-6.41390E-04 1.75950E-04
 -1       257-5.48510E-07-7.42031E-04-5.68325E-07
 -1       258 6.49260E-12-6.41221E-04-4.97116E-07
 -1       259 5.48520E-07-7.42026E-04-5.68316E-07
 -1       260 2.44971E-09-6.38917E-04-1.75657E-04
 -1       261 1.94356E-12-2.86084E-04-4.75313E-07
 -3
    1PSTEP                         4           4           1          
  100CL  104 4.00000E-02          81                     1    4           1
 -4  DISP        4    1
 -5  D1          1    2    1    0
 -5  D2          1    2    2    0
 -5  D3          1    2    3    0
 -5  ALL         1    2    0    0    1ALL
 -1         5 0.00000E+00 0.00000E+00 0.00000E+00
 -1         6 0.00000E+00 0.00000E+00 0.00000E+00
 -1         7 0.00000E+00 0.00000E+00 0.00000E+00
 -1         8 0.00000E+00 0.00000E+00 0.00000E+00
 -1        21 0.00000E+00 0.00000E+00 0.00000E+00
 -1        22 0.00000E+00 0.00000E+00 0.00000E+00
 -1        23 0.00000E+00 0.00000E+00 0.00000E+00
 -1        24 0.00000E+00 0.00000E+00 0.00000E+00
 -1        25 0.00000E+00 0.00000E+00 0.00000E+00
 -1        26 0.00000E+00 0.00000E+00 0.00000E+00
 -1        27 0.00000E+00 0.00000E+00 0.00000E+00
 -1        28 0.00000E+00 0.00000E+00 0.00000E+00
 -1        29 0.00000E+00 0.00000E+00 0.00000E+00
 -1        30 0.00000E+00 0.00000E+00 0.00000E+00
 -1        31 0.00000E+00 0.00000E+00 0.00000E+00
 -1        32 0.00000E+00 0.00000E+00 0.00000E+00
 -1        44-4.87090E-05 9.92563E-04-1.41672E-04
 -1        45-8.52053E-06 7.52992E-04-2.45600E-04
 -1        46 1.87215E-05 5.57463E-04-2.59789E-04
 -1        47-3.13710E-05 2.30820E-04-1.72481E-04
 -1        48 3.13729E-05 2.30822E-04-1.72487E-04
 -1        49-1.87370E-05 5.57447E-04-2.59794E-04
 -1        50 8.53482E-06 7.53006E-04-2.45550E-04
 -1        51 4.86002E-05 9.92454E-04-1.41491E-04
 -1        74 4.52408E-05 1.00596E-03 1.40822E-04
 -1        75 5.18413E-06 7.59103E-04 2.44975E-04
 -1        76-1.67927E-05 5.53834E-04 2.59430E-04
 -1        77 3.23326E-05 2.28634E-04 1.72437E-04
 -1        89-4.51322E-05 1.00585E-03 1.40642E-04
 -1        90-5.19848E-06 7.59118E-04 2.44925E-04
 -1        91 1.68081E-05 5.53818E-04 2.59435E-04
 -1        92-3.23345E-05 2.28636E-04 1.72443E-04
 -1        98 0.00000E+00 0.00000E+00 0.00000E+00
 -1        99 0.00000E+00 0.00000E+00 0.00000E+00
 -1       100 0.00000E+00 0.00000E+00 0.00000E+00
 -1       101 0.00000E+00 0.00000E+00 0.00000E+00
 -1       102 0.00000E+00 0.00000E+00 0.00000E+00
 -1       124 1.61069E-05 9.07925E-04-1.38090E-04
 -1       125-1.54714E-08 1.00899E-03-1.42388E-04
 -1       126-1.61678E-05 9.07987E-04-1.38154E-04
 -1       127 2.50374E-09 7.70118E-04-2.28228E-04
 -1       128-8.77066E-06 5.76994E-04-2.75656E-04
 -1       129 5.58701E-10 5.46660E-04-2.81415E-04
 -1       130 8.76303E-06 5.77000E-04-2.75662E-04
 -1       131-4.97255E-10 2.30588E-04-1.66316E-04
 -1       153 4.98335E-05 1.19351E-03-6.57700E-05
 -1       154 2.42323E-06 1.05316E-03 1.71500E-07
 -1       155-4.93778E-05 1.19714E-03 6.60369E-05
 -1       156 1.52427E-06 7.96044E-04 5.72339E-07
 -1       157-8.63448E-06 5.02335E-04-1.10199E-04
 -1       158-1.16305E-06 5.36504E-04-1.43180E-07
 -1       159 8.49303E-06 5.01316E-04 1.09609E-04
 -1       160-4.13646E-07 1.96490E-04-1.29641E-07
 -1       182 1.71108E-05 8.99680E-04 1.35988E-04
 -1       183 1.54169E-08 1.01673E-03 1.39563E-04
 -1       184-1.70500E-05 8.99618E-04 1.35924E-04
 -1       185-2.51219E-09 7.74650E-04 2.26448E-04
 -1       186-8.46389E-06 5.78442E-04 2.76326E-04
 -1       187-5.86898E-10 5.43801E-04 2.82277E-04
 -1       188 8.47147E-06 5.78437E-04 2.76320E-04
 -1       189 4.93926E-10 2.29309E-04 1.66453E-04
 -1       211 4.94400E-05 1.19708E-03 6.59732E-05
 -1       212-2.42323E-06 1.05312E-03 1.71430E-07
 -1       213-4.98957E-05 1.19345E-03-6.57063E-05
 -1       214-1.52433E-06 7.96049E-04 5.72339E-07
 -1       215-8.48759E-06 5.01309E-04 1.09603E-04
 -1       216 1.16307E-06 5.36505E-04-1.43166E-07
 -1       217 8.62902E-06 5.02327E-04-1.10193E-04
 -1       218 4.13644E-07 1.96489E-04-1.29639E-07
 -1       250-1.41155E-08 1.03033E-03-5.58483E-05
 -1       251-4.72437E-07 7.62394E-04-1.65383E-06
 -1       252-7.64943E-12 7.98489E-04-7.71501E-07
 -1       253 4.72443E-07 7.62422E-04-1.65382E-06
 -1       254 1.40636E-08 1.03483E-03 5.88975E-05
 -1       255-6.83710E-12 8.45261E-04-2.85443E-07
 -1       256 2.10427E-09 4.75004E-04-1.26551E-04
 -1       257 3.86479E-07 5.45568E-04 1.02042E-07
 -1       258-6.52296E-12 4.71136E-04-1.89761E-08
 -1       259-3.86479E-07 5.45564E-04 1.02039E-07
 -1       260-2.11953E-09 4.73368E-04 1.25761E-04
 -1       261-3.29621E-12 2.15562E-04 1.87545E-07
 -3
    1PSTEP                         5           5           1          
  100CL  105 5.00000E-02          81                     1    5           1
 -4  DISP        4    1
 -5  D1          1    2    1    0
 -5  D2          1    2    2    0
 -5  D3          1    2    3    0
 -5  ALL         1    2    0    0    1ALL
 -1         5 0.00000E+00 0.00000E+00 0.00000E+00
 -1         6 0.00000E+00 0.00000E+00 0.00000E+00
 -1         7 0.00000E+00 0.00000E+00 0.00000E+00
 -1         8 0.00000E+00 0.00000E+00 0.00000E+00
 -1        21 0.00000E+00 0.00000E+00 0.00000E+00
 -1        22 0.00000E+00 0.00000E+00 0.00000E+00
 -1        23 0.00000E+00 0.00000E+00 0.00000E+00
 -1        24 0.00000E+00 0.00000E+00 0.00000E+00
 -1        25 0.00000E+00 0.00000E+00 0.00000E+00
 -1        26 0.00000E+00 0.00000E+00 0.00000E+00
 -1        27 0.00000E+00 0.00000E+00 0.00000E+00
 -1        28 0.00000E+00 0.00000E+00 0.00000E+00
 -1        29 0.00000E+00 0.00000E+00 0.00000E+00
 -1        30 0.00000E+00 0.00000E+00 0.00000E+00
 -1        31 0.00000E+00 0.00000E+00 0.00000E+00
 -1        32 0.00000E+00 0.00000E+00 0.00000E+00
 -1        44 2.96311E-05-7.75426E-04 1.13891E-04
 -1        45 4.31955E-06-5.78671E-04 1.87027E-04
 -1        46-1.12596E-05-4.24320E-04 2.02689E-04
 -1        47 2.36768E-05-1.75023E-04 1.33779E-04
 -1        48-2.36885E-05-1.75034E-04 1.33815E-04
 -1        49 1.13550E-05-4.24224E-04 2.02719E-04
 -1        50-4.40839E-06-5.78760E-04 1.86725E-04
 -1        51-2.89676E-05-7.74763E-04 1.12794E-04
 -1        74-2.46403E-05-7.81325E-04-1.07091E-04
 -1        75-1.65945E-06-5.86170E-04-1.86363E-04
 -1        76 1.03719E-05-4.19508E-04-2.03006E-04
 -1        77-2.49338E-05-1.73238E-04-1.34008E-04
 -1        89 2.39763E-05-7.80660E-04-1.05993E-04
 -1        90 1.74824E-06-5.86259E-04-1.86060E-04
 -1        91-1.04675E-05-4.19412E-04-2.03036E-04
 -1        92 2.49455E-05-1.73250E-04-1.34044E-04
 -1        98 0.00000E+00 0.00000E+00 0.00000E+00
 -1        99 0.00000E+00 0.00000E+00 0.00000E+00
 -1       100 0.00000E+00 0.00000E+00 0.00000E+00
 -1       101 0.00000E+00 0.00000E+00 0.00000E+00
 -1       102 0.00000E+00 0.00000E+00 0.00000E+00
 -1       124-5.79247E-06-6.99038E-04 1.13684E-04
 -1       125 9.06711E-08-7.72781E-04 9.38647E-05
 -1       126 6.16036E-06-6.99417E-04 1.14068E-04
 -1       127-1.42737E-08-5.87248E-04 1.74980E-04
 -1       128 4.96158E-06-4.41352E-04 2.10936E-04
 -1       129-4.26764E-09-4.18654E-04 2.18048E-04
 -1       130-4.91543E-06-4.41386E-04 2.10972E-04
 -1       131 3.14364E-09-1.75070E-04 1.26835E-04
 -1       153-3.84100E-05-9.29873E-04 5.34533E-05
 -1       154-4.09480E-06-8.22168E-04-2.70582E-06
 -1       155 3.63318E-05-9.31311E-04-5.60545E-05
 -1       156-7.44541E-07-6.06561E-04-6.24636E-07
 -1       157 7.02737E-06-3.84068E-04 8.57428E-05
 -1       158 4.78082E-07-4.12500E-04 8.76990E-08
 -1       159-6.90244E-06-3.82109E-04-8.48700E-05
 -1       160 3.70285E-07-1.48271E-04-1.58405E-07
 -1       182-6.05327E-06-6.89415E-04-1.10287E-04
 -1       183-9.07689E-08-7.82241E-04-9.33842E-05
 -1       184 5.68510E-06-6.89036E-04-1.09902E-04
 -1       185 1.42690E-08-5.91131E-04-1.73795E-04
 -1       186 5.04153E-06-4.42514E-04-2.12152E-04
 -1       187 4.20981E-09-4.16955E-04-2.19405E-04
 -1       188-5.08783E-06-4.42480E-04-2.12116E-04
 -1       189-3.13869E-09-1.73576E-04-1.27211E-04
 -1       211-3.67105E-05-9.30942E-04-5.56701E-05
 -1       212 4.09510E-06-8.21987E-04-2.70615E-06
 -1       213 3.87887E-05-9.29506E-04 5.30688E-05
 -1       214 7.44470E-07-6.06589E-04-6.24644E-07
 -1       215 6.86840E-06-3.82063E-04-8.48332E-05
 -1       216-4.78050E-07-4.12508E-04 8.77234E-08
 -1       217-6.99336E-06-3.84022E-04 8.57061E-05
 -1       218-3.70310E-07-1.48265E-04-1.58423E-07
 -1       250 8.38496E-08-7.83885E-04 3.07855E-05
 -1       251 9.20906E-07-5.84391E-04 1.06768E-06
 -1       252-1.66594E-11-5.95055E-04 1.01599E-06
 -1       253-9.20831E-07-5.84559E-04 1.06776E-06
 -1       254-8.39520E-08-7.89370E-04-3.40535E-05
 -1       255-1.17696E-11-6.50290E-04-1.28072E-07
 -1       256-1.32007E-08-3.59759E-04 9.91830E-05
 -1       257 3.83258E-08-4.15445E-04-3.44233E-07
 -1       258-7.37994E-12-3.54614E-04-1.02089E-07
 -1       259-3.83045E-08-4.15419E-04-3.44223E-07
 -1       260 1.31752E-08-3.58689E-04-9.89010E-05
 -1       261-7.98265E-12-1.64603E-04-5.63962E-08
 -3
    1PSTEP                         6           6           1          
  100CL  106 6.00000E-02          81                     1    6           1
 -4  DISP        4    1
 -5  D1          1    2    1    0
 -5  D2          1    2    2    0
 -5  D3          1    2    3    0
 -5  ALL         1    2    0    0    1ALL
 -1         5 0.00000E+00 0.00000E+00 0.00000E+00
 -1         6 0.00000E+00 0.00000E+00 0.00000E+00
 -1         7 0.00000E+00 0.00000E+00 0.00000E+00
 -1         8 0.00000E+00 0.00000E+00 0.00000E+00
 -1        21 0.00000E+00 0.00000E+00 0.00000E+00
 -1        22 0.00000E+00 0.00000E+00 0.00000E+00
 -1        23 0.00000E+00 0.00000E+00 0.00000E+00
 -1        24 0.00000E+00 0.00000E+00 0.00000E+00
 -1        25 0.00000E+00 0.00000E+00 0.00000E+00
 -1        26 0.00000E+00 0.00000E+00 0.00000E+00
 -1        27 0.00000E+00 0.00000E+00 0.00000E+00
 -1        28 0.00000E+00 0.00000E+00 0.00000E+00
 -1        29 0.00000E+00 0.00000E+00 0.00000E+00
 -1        30 0.00000E+00 0.00000E+00 0.00000E+00
 -1        31 0.00000E+00 0.00000E+00 0.00000E+00
 -1        32 0.00000E+00 0.00000E+00 0.00000E+00
 -1        44-3.43138E-05 5.31353E-04-6.42824E-05
 -1        45-7.89248E-06 4.16245E-04-1.33457E-04
 -1        46 1.13308E-05 3.06441E-04-1.46708E-04
 -1        47-1.69351E-05 1.27496E-04-9.60608E-05