
 displacements (vx,vy,vz) for set NALL and time  0.1000000E-01

         5  0.000000E+00  0.000000E+00  0.000000E+00
         6  0.000000E+00  0.000000E+00  0.000000E+00
         7  0.000000E+00  0.000000E+00  0.000000E+00
         8  0.000000E+00  0.000000E+00  0.000000E+00
        21  0.000000E+00  0.000000E+00  0.000000E+00
        22  0.000000E+00  0.000000E+00  0.000000E+00
        23  0.000000E+00  0.000000E+00  0.000000E+00
        24  0.000000E+00  0.000000E+00  0.000000E+00
        25  0.000000E+00  0.000000E+00  0.000000E+00
        26  0.000000E+00  0.000000E+00  0.000000E+00
        27  0.000000E+00  0.000000E+00  0.000000E+00
        28  0.000000E+00  0.000000E+00  0.000000E+00
        29  0.000000E+00  0.000000E+00  0.000000E+00
        30  0.000000E+00  0.000000E+00  0.000000E+00
        31  0.000000E+00  0.000000E+00  0.000000E+00
        32  0.000000E+00  0.000000E+00  0.000000E+00
        44  5.965078E-05 -1.996087E-03  2.771340E-04
        45  7.948239E-06 -1.520409E-03  4.881403E-04
        46 -3.663628E-05 -1.106719E-03  5.130126E-04
        47  6.470258E-05 -4.611335E-04  3.449257E-04
        48 -6.470263E-05 -4.611335E-04  3.449258E-04
        49  3.663674E-05 -1.106718E-03  5.130127E-04
        50 -7.948577E-06 -1.520410E-03  4.881386E-04
        51 -5.964719E-05 -1.996083E-03  2.771281E-04
        74 -5.143965E-05 -2.027470E-03 -2.807258E-04
        75 -2.374638E-06 -1.532046E-03 -4.902823E-04
        76  3.218128E-05 -1.104143E-03 -5.143511E-04
        77 -6.788372E-05 -4.550250E-04 -3.457392E-04
        89  5.143625E-05 -2.027467E-03 -2.807199E-04
        90  2.375080E-06 -1.532047E-03 -4.902806E-04
        91 -3.218171E-05 -1.104143E-03 -5.143512E-04
        92  6.788377E-05 -4.550251E-04 -3.457394E-04
        98  0.000000E+00  0.000000E+00  0.000000E+00
        99  0.000000E+00  0.000000E+00  0.000000E+00
       100  0.000000E+00  0.000000E+00  0.000000E+00
       101  0.000000E+00  0.000000E+00  0.000000E+00
       102  0.000000E+00  0.000000E+00  0.000000E+00
       124 -6.121922E-06 -1.809186E-03  2.631267E-04
       125  7.136424E-10 -2.011255E-03  2.790528E-04
       126  6.124157E-06 -1.809188E-03  2.631290E-04
       127 -1.213566E-10 -1.534703E-03  4.551762E-04
       128  1.548873E-05 -1.153815E-03  5.503913E-04
       129  3.854008E-11 -1.098829E-03  5.629086E-04
       130 -1.548845E-05 -1.153815E-03  5.503915E-04
       131  1.533756E-11 -4.600936E-04  3.295179E-04
       153 -1.013963E-04 -2.406582E-03  1.267882E-04
       154 -2.914121E-06 -2.146490E-03 -9.295379E-07
       155  1.015537E-04 -2.416910E-03 -1.310939E-04
       156 -1.988990E-06 -1.588831E-03 -2.830424E-06
       157  1.473339E-05 -1.007812E-03  2.162468E-04
       158  3.056139E-06 -1.084584E-03 -3.956109E-07
       159 -1.147509E-05 -1.008562E-03 -2.166222E-04
       160  1.310210E-06 -3.910749E-04  7.688033E-07
       182 -6.697046E-06 -1.796365E-03 -2.647007E-04
       183 -6.308833E-10 -2.037746E-03 -2.806033E-04
       184  6.695030E-06 -1.796363E-03 -2.646984E-04
       185  1.522913E-10 -1.549168E-03 -4.553116E-04
       186  1.459433E-05 -1.168046E-03 -5.542724E-04
       187 -6.558151E-12 -1.110288E-03 -5.675460E-04
       188 -1.459457E-05 -1.168046E-03 -5.542723E-04
       189 -6.675550E-12 -4.620152E-04 -3.312576E-04
       211 -1.015558E-04 -2.416907E-03 -1.310916E-04
       212  2.914254E-06 -2.146489E-03 -9.295478E-07
       213  1.013984E-04 -2.406580E-03  1.267859E-04
       214  1.989074E-06 -1.588832E-03 -2.830438E-06
       215  1.147498E-05 -1.008562E-03 -2.166220E-04
       216 -3.056152E-06 -1.084584E-03 -3.956341E-07
       217 -1.473323E-05 -1.007812E-03  2.162466E-04
       218 -1.310214E-06 -3.910749E-04  7.687912E-07
       250  6.021359E-10 -2.032888E-03  1.104768E-04
       251 -4.165337E-07 -1.524805E-03  3.352261E-06
       252  2.223877E-11 -1.541509E-03  1.231139E-06
       253  4.165807E-07 -1.524806E-03  3.352273E-06
       254 -5.225626E-10 -2.049002E-03 -1.232012E-04
       255  1.593693E-11 -1.694619E-03 -1.114687E-06
       256 -4.102273E-11 -9.479590E-04  2.520609E-04
       257 -1.548012E-06 -1.092003E-03 -1.289332E-06
       258  1.200856E-11 -9.359754E-04 -1.118078E-06
       259  1.548027E-06 -1.092003E-03 -1.289320E-06
       260  6.393735E-11 -9.524600E-04 -2.523097E-04
       261  3.590830E-12 -4.352989E-04  8.275350E-08

 forces (fx,fy,fz) for set NALL and time  0.1000000E-01

         5  8.377421E-01 -1.313555E+00 -9.273393E-01
         6 -8.377441E-01 -1.313553E+00 -9.273456E-01
         7  8.918416E-01 -1.156312E+00  9.253164E-01
         8 -8.918401E-01 -1.156313E+00  9.253102E-01
        21  5.244935E-01  3.180544E+00 -1.108628E+01
        22  2.051233E-06 -5.344803E-01 -2.069452E+00
        23 -5.244920E-01  3.180552E+00 -1.108628E+01
        24 -2.181853E+00  7.404887E+00 -5.536242E+00
        25  4.491540E-02 -3.484018E+00 -8.632774E-03
        26  2.118233E+00  7.362838E+00  5.576845E+00
        27  5.133857E-01  2.973606E+00  1.104385E+01
        28 -2.166205E-06 -3.135652E-01  2.070270E+00
        29 -5.133870E-01  2.973597E+00  1.104385E+01
        30 -2.118224E+00  7.362839E+00  5.576849E+00
        31 -4.491636E-02 -3.484014E+00 -8.632583E-03
        32  2.181846E+00  7.404889E+00 -5.536246E+00
        44  1.413422E-01  2.267669E+01  1.084688E+00
        45 -1.780479E-06 -6.080691E-01  1.525512E-01
        46  1.359718E-06  1.541496E+00 -4.634069E-01
        47 -4.749072E-07 -1.167017E+00  5.403022E-01
        48  5.250253E-07 -1.167017E+00  5.403023E-01
        49 -1.222698E-06  1.541496E+00 -4.634069E-01
        50  1.330382E-06 -6.080697E-01  1.525511E-01
        51 -1.413269E-01  2.267670E+01  1.084667E+00
        74 -3.878300E-01  2.181299E+01 -1.012904E+00
        75  1.585427E-07 -6.080905E-01 -1.525442E-01
        76 -4.080368E-07  1.541511E+00  4.634049E-01
        77  1.004604E-06 -1.167020E+00 -5.403012E-01
        89  3.878194E-01  2.181300E+01 -1.012883E+00
        90 -8.696733E-07 -6.080895E-01 -1.525442E-01
        91  5.308386E-07  1.541511E+00  4.634049E-01
        92 -8.559033E-07 -1.167021E+00 -5.403012E-01
        98  1.589300E-06  1.345706E+01 -1.003952E+01
        99  3.307720E-02 -2.555948E+00 -6.041657E-03
       100 -6.437375E-07 -8.117625E+00 -1.918205E-02
       101 -3.307618E-02 -2.555951E+00 -6.041665E-03
       102 -1.810453E-06  1.358885E+01  1.009891E+01
       124 -2.711942E+00  1.251560E+01 -8.061062E-01
       125  7.426338E-06  3.934427E+01  2.160631E+00
       126  2.711939E+00  1.251559E+01 -8.060933E-01
       127  1.143281E-07 -1.216138E+00  3.051001E-01
       128  1.141869E-06 -2.615808E+00  9.358554E-01
       129 -5.509480E-08  3.082992E+00 -9.268130E-01
       130 -1.251167E-06 -2.615807E+00  9.358551E-01
       131  1.381363E-07 -2.334034E+00  1.080604E+00
       153 -1.870891E+00 -6.540302E+01 -1.693157E+00
       154 -1.931975E-01  4.518268E+01  6.773204E-02
       155  2.346085E+00 -6.516194E+01  1.445879E+00
       156 -2.930422E-06 -1.216157E+00 -6.201056E-06
       157 -1.899623E-06 -2.615810E+00  7.018891E-01
       158  1.449604E-06  3.083007E+00  2.902970E-06
       159 -3.781516E-08 -2.615825E+00 -7.018898E-01
       160 -2.976348E-07 -2.334038E+00 -8.446981E-07
       182 -2.768471E+00  1.401744E+01  8.573484E-01
       183 -5.957838E-06  3.804316E+01 -1.913689E+00
       184  2.768473E+00  1.401746E+01  8.573608E-01
       185  3.173579E-07 -1.742499E+00 -3.050870E-01
       186  6.263949E-07 -3.142145E+00 -9.358487E-01
       187 -1.176032E-07  2.556708E+00  9.268100E-01
       188 -7.229951E-07 -3.142145E+00 -9.358486E-01
       189  1.029514E-07 -2.860359E+00 -1.080601E+00
       211 -2.346106E+00 -6.516195E+01  1.445892E+00
       212  1.932057E-01  4.518270E+01  6.773234E-02
       213  1.870904E+00 -6.540303E+01 -1.693170E+00
       214  2.322915E-06 -1.216158E+00 -5.743846E-06
       215 -3.826470E-07 -2.615825E+00 -7.018899E-01
       216 -1.162924E-06  3.083007E+00  2.677824E-06
       217  1.560894E-06 -2.615810E+00  7.018892E-01
       218  1.533499E-07 -2.334038E+00 -1.144624E-06
       250  6.136663E-06 -1.100183E+02 -3.739322E+00
       251 -7.205071E-02  4.158629E+01  3.862000E-01
       252  4.855686E-06  9.411650E+01  3.037287E-01
       253  7.204191E-02  4.158628E+01  3.862006E-01
       254 -6.143495E-06 -1.106212E+02  2.525301E+00
       255  8.217769E-07 -2.432317E+00 -1.518435E-05
       256  2.152210E-07 -5.231619E+00  1.403776E+00
       257  1.809451E-06 -5.231635E+00 -6.650290E-06
       258 -1.664802E-07  6.166016E+00  5.973322E-06
       259 -1.731045E-06 -5.231635E+00 -6.743451E-06
       260  4.177713E-07 -5.231653E+00 -1.403779E+00
       261 -1.160656E-07 -4.668078E+00 -2.329103E-06

 displacements (vx,vy,vz) for set NALL and time  0.2000000E-01

         5  0.000000E+00  0.000000E+00  0.000000E+00
         6  0.000000E+00  0.000000E+00  0.000000E+00
         7  0.000000E+00  0.000000E+00  0.000000E+00
         8  0.000000E+00  0.000000E+00  0.000000E+00
        21  0.000000E+00  0.000000E+00  0.000000E+00
        22  0.000000E+00  0.000000E+00  0.000000E+00
        23  0.000000E+00  0.000000E+00  0.000000E+00
        24  0.000000E+00  0.000000E+00  0.000000E+00
        25  0.000000E+00  0.000000E+00  0.000000E+00
        26  0.000000E+00  0.000000E+00  0.000000E+00
        27  0.000000E+00  0.000000E+00  0.000000E+00
        28  0.000000E+00  0.000000E+00  0.000000E+00
        29  0.000000E+00  0.000000E+00  0.000000E+00
        30  0.000000E+00  0.000000E+00  0.000000E+00
        31  0.000000E+00  0.000000E+00  0.000000E+00
        32  0.000000E+00  0.000000E+00  0.000000E+00
        44 -1.483606E-04  1.639639E-03 -2.396136E-04
        45 -2.751112E-05  1.225487E-03 -4.191263E-04
        46  3.131833E-05  9.400770E-04 -4.438295E-04
        47 -4.694881E-05  3.799844E-04 -2.840257E-04
        48  4.694824E-05  3.799838E-04 -2.840239E-04
        49 -3.131371E-05  9.400816E-04 -4.438280E-04
        50  2.750676E-05  1.225483E-03 -4.191408E-04
        51  1.483925E-04  1.639671E-03 -2.396664E-04
        74  1.408651E-04  1.664553E-03  2.378880E-04
        75  2.159541E-05  1.236926E-03  4.183543E-04
        76 -2.783564E-05  9.335232E-04  4.437005E-04
        77  4.883595E-05  3.760291E-04  2.842462E-04
        89 -1.408971E-04  1.664585E-03  2.379407E-04
        90 -2.159113E-05  1.236921E-03  4.183688E-04
        91  2.783100E-05  9.335278E-04  4.436990E-04
        92 -4.883538E-05  3.760285E-04  2.842444E-04
        98  0.000000E+00  0.000000E+00  0.000000E+00
        99  0.000000E+00  0.000000E+00  0.000000E+00
       100  0.000000E+00  0.000000E+00  0.000000E+00
       101  0.000000E+00  0.000000E+00  0.000000E+00
       102  0.000000E+00  0.000000E+00  0.000000E+00
       124  7.472128E-05  1.509020E-03 -2.336389E-04
       125  4.232149E-09  1.681098E-03 -2.258239E-04
       126 -7.470374E-05  1.509002E-03 -2.336206E-04
       127 -6.620345E-10  1.286874E-03 -3.778545E-04
       128 -1.848561E-05  9.607453E-04 -4.640384E-04
       129 -2.457273E-10  8.980487E-04 -4.724660E-04
       130  1.848781E-05  9.607436E-04 -4.640366E-04
       131  1.504597E-10  3.772869E-04 -2.772038E-04
       153  8.182061E-05  1.991940E-03 -1.130844E-04
       154  4.296448E-06  1.705951E-03  1.129766E-07
       155 -8.206624E-05  1.998496E-03  1.139189E-04
       156  3.053868E-06  1.326071E-03  1.237013E-06
       157 -2.163827E-05  8.237006E-04 -1.882232E-04
       158 -2.236117E-06  8.739471E-04  1.557790E-07
       159  2.126584E-05  8.219901E-04  1.876647E-04
       160 -8.310648E-07  3.248599E-04 -8.778995E-08
       182  7.605201E-05  1.494773E-03  2.311368E-04
       183 -4.301812E-09  1.697983E-03  2.235391E-04
       184 -7.606974E-05  1.494791E-03  2.311552E-04
       185  6.398279E-10  1.295166E-03  3.759555E-04
       186 -1.800194E-05  9.640246E-04  4.654758E-04
       187  2.175039E-10  8.938522E-04  4.739749E-04
       188  1.799972E-05  9.640262E-04  4.654776E-04
       189 -1.574557E-10  3.752697E-04  2.775523E-04
       211  8.204801E-05  1.998514E-03  1.139373E-04
       212 -4.296554E-06  1.705960E-03  1.129764E-07
       213 -8.180240E-05  1.991957E-03 -1.131028E-04
       214 -3.053941E-06  1.326070E-03  1.237023E-06
       215 -2.126752E-05  8.219923E-04  1.876665E-04
       216  2.236133E-06  8.739466E-04  1.557976E-07
       217  2.163992E-05  8.237028E-04 -1.882250E-04
       218  8.310695E-07  3.248602E-04 -8.778099E-08
       250  3.942117E-09  1.750251E-03 -8.683198E-05
       251 -6.942356E-07  1.238862E-03 -1.986657E-06
       252 -1.525499E-11  1.373630E-03 -1.758696E-07
       253  6.942047E-07  1.238854E-03 -1.986664E-06
       254 -4.007610E-09  1.759461E-03  9.270657E-05
       255 -1.179436E-11  1.412278E-03  1.189291E-07
       256 -6.547450E-10  7.781579E-04 -2.113219E-04
       257  7.522154E-07  9.022166E-04  3.687704E-07
       258 -9.550884E-12  7.769192E-04  1.991968E-07
       259 -7.522259E-07  9.022178E-04  3.687608E-07
       260  6.360275E-10  7.757702E-04  2.106669E-04
       261 -3.108566E-12  3.487725E-04  3.295707E-07

 forces (fx,fy,fz) for set NALL and time  0.2000000E-01

         5 -6.592245E-01  1.254956E+00  6.863093E-01
         6  6.591994E-01  1.254981E+00  6.862400E-01
         7 -6.899731E-01  1.126175E+00 -6.818006E-01
         8  6.899986E-01  1.126150E+00 -6.818700E-01
        21 -8.654622E-01 -2.441828E+00  9.204824E+00
        22  2.278796E-05  8.135081E-01  1.489274E+00
        23  8.654737E-01 -2.441746E+00  9.204867E+00
        24  1.576445E+00 -6.982584E+00  4.664549E+00
        25 -3.225993E-02  3.756206E+00  1.366668E-02
        26 -1.504440E+00 -6.911566E+00 -4.708229E+00
        27 -8.876666E-01 -2.262666E+00 -9.177638E+00
        28 -2.268074E-05  6.378678E-01 -1.477907E+00
        29  8.876549E-01 -2.262746E+00 -9.177595E+00
        30  1.504520E+00 -6.911555E+00 -4.708186E+00
        31  3.226080E-02  3.756251E+00  1.366647E-02
        32 -1.576526E+00 -6.982572E+00  4.664505E+00
        44  1.958489E-01 -2.080504E+01 -4.002914E-01
        45  1.524131E-06  5.208624E-01 -1.306730E-01
        46 -1.164882E-06 -1.320421E+00  3.969471E-01
        47  4.081755E-07  9.996487E-01 -4.628144E-01
        48 -4.511059E-07  9.996484E-01 -4.628145E-01
        49  1.047513E-06 -1.320422E+00  3.969471E-01
        50 -1.138585E-06  5.208629E-01 -1.306729E-01
        51 -1.957107E-01 -2.080491E+01 -4.005276E-01
        74 -1.109586E-02 -1.991815E+01  3.586351E-01
        75 -1.347439E-07  5.208807E-01  1.306670E-01
        76  3.496274E-07 -1.320435E+00 -3.969454E-01
        77 -8.619046E-07  9.996514E-01  4.628136E-01
        89  1.095319E-02 -1.991801E+01  3.588713E-01
        90  7.438872E-07  5.208799E-01  1.306670E-01
        91 -4.548175E-07 -1.320434E+00 -3.969454E-01
        92  7.345298E-07  9.996518E-01  4.628136E-01
        98  3.188405E-05 -1.187698E+01  8.443570E+00
        99 -3.937447E-03  2.831695E+00  8.666688E-03
       100  5.866722E-07  6.643508E+00  3.721009E-02
       101  3.936501E-03  2.831632E+00  8.666682E-03
       102 -3.168558E-05 -1.187827E+01 -8.529679E+00
       124  5.329395E+00 -1.144917E+01 -3.379495E-01
       125  5.559586E-05 -3.484325E+01 -7.037092E-01
       126 -5.329440E+00 -1.144931E+01 -3.379123E-01
       127 -9.793170E-08  1.041725E+00 -2.613440E-01
       128 -9.784073E-07  2.240660E+00 -8.016390E-01
       129  4.719332E-08 -2.640843E+00  7.938935E-01
       130  1.072030E-06  2.240660E+00 -8.016388E-01
       131 -1.183254E-07  1.999297E+00 -9.256283E-01
       153  2.682761E+00  6.014287E+01  7.536552E-01
       154  1.719443E-01 -4.308192E+01 -3.624808E-02
       155 -3.162668E+00  5.964765E+01 -6.161349E-01
       156  2.510158E-06  1.041741E+00  5.311600E-06
       157  1.627522E-06  2.240662E+00 -6.012272E-01
       158 -1.241749E-06 -2.640856E+00 -2.486547E-06
       159  3.215817E-08  2.240675E+00  6.012278E-01
       160  2.549995E-07  1.999301E+00  7.235657E-07
       182  5.524128E+00 -1.275513E+01  2.834155E-01
       183 -5.703404E-05 -3.345803E+01  5.750814E-01
       184 -5.524083E+00 -1.275500E+01  2.834531E-01
       185 -2.718438E-07  1.069464E+00  2.613328E-01
       186 -5.368026E-07  2.268379E+00  8.016334E-01
       187  1.007371E-07 -2.613169E+00 -7.938910E-01
       188  6.195488E-07  2.268379E+00  8.016333E-01
       189 -8.818654E-08  2.027006E+00  9.256261E-01
       211  3.162533E+00  5.964760E+01 -6.160970E-01
       212 -1.719519E-01 -4.308181E+01 -3.624825E-02
       213 -2.682617E+00  6.014283E+01  7.536174E-01
       214 -1.989777E-06  1.041741E+00  4.919961E-06
       215  3.280032E-07  2.240675E+00  6.012279E-01
       216  9.961823E-07 -2.640856E+00 -2.293690E-06
       217 -1.337372E-06  2.240662E+00 -6.012273E-01
       218 -1.314073E-07  1.999301E+00  9.804773E-07
       250  1.484931E-05  9.832464E+01  3.502857E+00
       251 -1.572051E-02 -3.795492E+01 -2.097663E-01
       252 -4.529163E-06 -8.012209E+01 -1.256025E-01
       253  1.572870E-02 -3.795495E+01 -2.097667E-01
       254 -1.477659E-05  9.817500E+01 -2.822443E+00
       255 -7.039212E-07  2.083484E+00  1.300641E-05
       256 -1.843549E-07  4.481323E+00 -1.202452E+00
       257 -1.550043E-06  4.481336E+00  5.696415E-06
       258  1.426043E-07 -5.281712E+00 -5.116456E-06
       259  1.482882E-06  4.481336E+00  5.776216E-06
       260 -3.578564E-07  4.481352E+00  1.202455E+00
       261  9.941995E-08  3.998602E+00  1.995084E-06

 displacements (vx,vy,vz) for set NALL and time  0.3000000E-01

         5  0.000000E+00  0.000000E+00  0.000000E+00
         6  0.000000E+00  0.000000E+00  0.000000E+00
         7  0.000000E+00  0.000000E+00  0.000000E+00
         8  0.000000E+00  0.000000E+00  0.000000E+00
        21  0.000000E+00  0.000000E+00  0.000000E+00
        22  0.000000E+00  0.000000E+00  0.000000E+00
        23  0.000000E+00  0.000000E+00  0.000000E+00
        24  0.000000E+00  0.000000E+00  0.000000E+00
        25  0.000000E+00  0.000000E+00  0.000000E+00
        26  0.000000E+00  0.000000E+00  0.000000E+00
        27  0.000000E+00  0.000000E+00  0.000000E+00
        28  0.000000E+00  0.000000E+00  0.000000E+00
        29  0.000000E+00  0.000000E+00  0.000000E+00
        30  0.000000E+00  0.000000E+00  0.000000E+00
        31  0.000000E+00  0.000000E+00  0.000000E+00
        32  0.000000E+00  0.000000E+00  0.000000E+00
        44  9.187390E-05 -1.309162E-03  1.912401E-04
        45  1.793356E-05 -9.779483E-04  3.315791E-04
        46 -2.485489E-05 -7.392885E-04  3.479055E-04
        47  3.892727E-05 -3.006051E-04  2.252636E-04
        48 -3.894364E-05 -3.006215E-04  2.253135E-04
        49  2.498862E-05 -7.391549E-04  3.479477E-04
        50 -1.805785E-05 -9.780724E-04  3.311533E-04
        51 -9.094143E-05 -1.308231E-03  1.896986E-04
        74 -8.765576E-05 -1.329239E-03 -1.913320E-04
        75 -1.310818E-05 -9.864228E-04 -3.309279E-04
        76  2.195347E-05 -7.342132E-04 -3.473797E-04
        77 -4.029330E-05 -2.975389E-04 -2.252419E-04
        89  8.672323E-05 -1.328307E-03 -1.897902E-04
        90  1.323252E-05 -9.865469E-04 -3.305020E-04
        91 -2.208723E-05 -7.340795E-04 -3.474219E-04
        92  4.030968E-05 -2.975553E-04 -2.252919E-04
        98  0.000000E+00  0.000000E+00  0.000000E+00
        99  0.000000E+00  0.000000E+00  0.000000E+00
       100  0.000000E+00  0.000000E+00  0.000000E+00
       101  0.000000E+00  0.000000E+00  0.000000E+00
       102  0.000000E+00  0.000000E+00  0.000000E+00
       124 -4.111648E-05 -1.196118E-03  1.846021E-04
       125  1.286360E-07 -1.328866E-03  1.862419E-04
       126  4.163464E-05 -1.196650E-03  1.851435E-04
       127 -2.037811E-08 -1.017370E-03  3.022947E-04
       128  1.342500E-05 -7.592015E-04  3.667769E-04
       129 -5.717656E-09 -7.125116E-04  3.737267E-04
       130 -1.336002E-05 -7.592491E-04  3.668284E-04
       131  4.375796E-09 -2.993655E-04  2.191053E-04
       153 -6.707180E-05 -1.582147E-03  8.794205E-05
       154 -3.311276E-06 -1.369598E-03  9.407542E-08
       155  6.632628E-05 -1.587632E-03 -8.866880E-05
       156 -2.200700E-06 -1.049464E-03 -6.952315E-07
       157  1.471862E-05 -6.538887E-04  1.480128E-04
       158  1.642638E-06 -6.954506E-04  8.537231E-08
       159 -1.464407E-05 -6.525004E-04 -1.472799E-04
       160  6.084468E-07 -2.564322E-04  1.470589E-07
       182 -4.328383E-05 -1.186540E-03 -1.836497E-04
       183 -1.286155E-07 -1.342589E-03 -1.846937E-04
       184  4.276572E-05 -1.186008E-03 -1.831082E-04
       185  2.038583E-08 -1.023288E-03 -3.004299E-04
       186  1.284034E-05 -7.615703E-04 -3.677198E-04
       187  5.725983E-09 -7.088221E-04 -3.747182E-04
       188 -1.290533E-05 -7.615228E-04 -3.676683E-04
       189 -4.369717E-09 -2.975653E-04 -2.191704E-04
       211 -6.685871E-05 -1.587114E-03 -8.812710E-05
       212  3.311397E-06 -1.369340E-03  9.401169E-08
       213  6.760420E-05 -1.581629E-03  8.740034E-05
       214  2.200733E-06 -1.049505E-03 -6.952347E-07
       215  1.459652E-05 -6.524354E-04 -1.472284E-04
       216 -1.642644E-06 -6.954618E-04  8.536663E-08
       217 -1.467107E-05 -6.538237E-04  1.479613E-04
       218 -6.084555E-07 -2.564234E-04  1.470482E-07
       250  1.185639E-07 -1.374237E-03  7.466313E-05
       251  5.193742E-07 -9.899513E-04  2.302138E-06
       252  5.098069E-12 -1.071055E-03  1.132916E-06
       253 -5.193471E-07 -9.901885E-04  2.302163E-06
       254 -1.185462E-07 -1.381805E-03 -7.848942E-05
       255  1.988798E-12 -1.115618E-03  3.063583E-07
       256 -1.842798E-08 -6.172434E-04  1.672478E-04
       257 -5.261911E-07 -7.140133E-04 -1.550086E-07
       258  6.077068E-12 -6.149784E-04  8.604541E-09
       259  5.262028E-07 -7.139765E-04 -1.550020E-07
       260  1.843723E-08 -6.151357E-04 -1.664488E-04
       261  2.094327E-13 -2.779072E-04 -2.005439E-07

 forces (fx,fy,fz) for set NALL and time  0.3000000E-01

         5  5.425489E-01 -9.331559E-01 -5.707639E-01
         6 -5.432660E-01 -9.324391E-01 -5.727596E-01
         7  5.673485E-01 -8.353651E-01  5.721627E-01
         8 -5.666316E-01 -8.360817E-01  5.701668E-01
        21  5.667270E-01  1.954042E+00 -7.272134E+00
        22  6.550638E-04 -5.520739E-01 -1.226527E+00
        23 -5.663874E-01  1.956385E+00 -7.270874E+00
        24 -1.292793E+00  5.308281E+00 -3.676135E+00
        25  2.384359E-02 -2.757942E+00 -6.576269E-03
        26  1.238938E+00  5.257864E+00  3.704087E+00
        27  5.822987E-01  1.818526E+00  7.241519E+00
        28 -6.551884E-04 -4.242689E-01  1.221632E+00
        29 -5.826381E-01  1.816181E+00  7.242779E+00
        30 -1.236592E+00  5.258204E+00  3.705346E+00
        31 -2.384451E-02 -2.756634E+00 -6.576377E-03
        32  1.290448E+00  5.308621E+00 -3.677393E+00
        44 -5.011915E-02  1.597378E+01  4.612253E-01
        45 -1.210388E-06 -4.142535E-01  1.039271E-01
        46  9.268305E-07  1.050161E+00 -3.157010E-01
        47 -3.272618E-07 -7.950432E-01  3.680867E-01
        48  3.614053E-07 -7.950430E-01  3.680869E-01
        49 -8.334848E-07  1.050161E+00 -3.157010E-01
        50  9.037544E-07 -4.142539E-01  1.039271E-01
        51  5.416309E-02  1.597783E+01  4.544403E-01
        74 -1.034504E-01  1.529352E+01 -4.382628E-01
        75  1.052708E-07 -4.142681E-01 -1.039224E-01
        76 -2.783511E-07  1.050171E+00  3.156996E-01
        77  6.881294E-07 -7.950454E-01 -3.680861E-01
        89  9.940893E-02  1.529756E+01 -4.314760E-01
        90 -5.897363E-07 -4.142675E-01 -1.039224E-01
        91  3.620112E-07  1.050171E+00  3.156996E-01
        92 -5.868254E-07 -7.950458E-01 -3.680861E-01
        98  8.905885E-04  9.200502E+00 -6.666638E+00
        99  2.785287E-03 -2.098226E+00 -1.412971E-02
       100 -5.553944E-07 -5.181801E+00 -2.390606E-02
       101 -2.784609E-03 -2.100006E+00 -1.412938E-02
       102 -8.908248E-04  9.210895E+00  6.729414E+00
       124 -3.439991E+00  8.832564E+00 -1.789902E-02
       125  1.650957E-03  2.713857E+01  9.089352E-01
       126  3.438724E+00  8.828469E+00 -1.663065E-02
       127  7.788725E-08 -8.285072E-01  2.078527E-01
       128  7.787697E-07 -1.782047E+00  6.375617E-01
       129 -3.753397E-08  2.100322E+00 -6.314014E-01
       130 -8.532295E-07 -1.782047E+00  6.375615E-01
       131  9.410698E-08 -1.590086E+00  7.361732E-01
       153 -1.909269E+00 -4.623792E+01 -7.809359E-01
       154 -1.311139E-01  3.280237E+01  1.920333E-02
       155  2.260507E+00 -4.587321E+01  6.764166E-01
       156 -1.996362E-06 -8.285202E-01 -4.224244E-06
       157 -1.295077E-06 -1.782049E+00  4.781696E-01
       158  9.876382E-07  2.100332E+00  1.977473E-06
       159 -2.505033E-08 -1.782059E+00 -4.781701E-01
       160 -2.028865E-07 -1.590089E+00 -5.754840E-07
       182 -3.575612E+00  9.831219E+00  5.534324E-02
       183 -1.650385E-03  2.608625E+01 -8.228294E-01
       184  3.576879E+00  9.835321E+00  5.661193E-02
       185  2.162036E-07 -8.299959E-01 -2.078438E-01
       186  4.274659E-07 -1.783520E+00 -6.375571E-01
       187 -8.011846E-08  2.098886E+00  6.313994E-01
       188 -4.932761E-07 -1.783520E+00 -6.375571E-01
       189  7.013669E-08 -1.591550E+00 -7.361714E-01
       211 -2.264613E+00 -4.587447E+01  6.776917E-01
       212  1.311201E-01  3.280567E+01  1.920338E-02
       213  1.913368E+00 -4.623918E+01 -7.822124E-01
       214  1.582492E-06 -8.285203E-01 -3.912765E-06
       215 -2.613943E-07 -1.782059E+00 -4.781701E-01
       216 -7.923338E-07  2.100332E+00  1.824090E-06
       217  1.064315E-06 -1.782049E+00  4.781696E-01
       218  1.045908E-07 -1.590089E+00 -7.798117E-07
       250  5.256485E-04 -7.626769E+01 -2.551409E+00
       251  3.233750E-03  2.923408E+01  1.979137E-01
       252  3.550405E-06  6.290548E+01  1.088878E-01
       253 -3.239972E-03  2.923302E+01  1.979147E-01
       254 -5.253313E-04 -7.619835E+01  2.019304E+00
       255  5.598445E-07 -1.657042E+00 -1.034389E-05
       256  1.466219E-07 -3.564098E+00  9.563375E-01
       257  1.232922E-06 -3.564108E+00 -4.530313E-06
       258 -1.134165E-07  4.200665E+00  4.068940E-06
       259 -1.179507E-06 -3.564108E+00 -4.593780E-06
       260  2.846111E-07 -3.564121E+00 -9.563395E-01
       261 -7.907095E-08 -3.180179E+00 -1.586748E-06

 displacements (vx,vy,vz) for set NALL and time  0.4000000E-01

         5  0.000000E+00  0.000000E+00  0.000000E+00
         6  0.000000E+00  0.000000E+00  0.000000E+00
         7  0.000000E+00  0.000000E+00  0.000000E+00
         8  0.000000E+00  0.000000E+00  0.000000E+00
        21  0.000000E+00  0.000000E+00  0.000000E+00
        22  0.000000E+00  0.000000E+00  0.000000E+00
        23  0.000000E+00  0.000000E+00  0.000000E+00
        24  0.000000E+00  0.000000E+00  0.000000E+00
        25  0.000000E+00  0.000000E+00  0.000000E+00
        26  0.000000E+00  0.000000E+00  0.000000E+00
        27  0.000000E+00  0.000000E+00  0.000000E+00
        28  0.000000E+00  0.000000E+00  0.000000E+00
        29  0.000000E+00  0.000000E+00  0.000000E+00
        30  0.000000E+00  0.000000E+00  0.000000E+00
        31  0.000000E+00  0.000000E+00  0.000000E+00
        32  0.000000E+00  0.000000E+00  0.000000E+00
        44 -7.851548E-05  9.971369E-04 -1.430341E-04
        45 -1.574803E-05  7.495995E-04 -2.547906E-04
        46  2.072550E-05  5.716816E-04 -2.659762E-04
        47 -2.980057E-05  2.325990E-04 -1.723461E-04
        48  2.977957E-05  2.325780E-04 -1.722820E-04
        49 -2.055407E-05  5.718530E-04 -2.659221E-04
        50  1.558850E-05  7.494402E-04 -2.553356E-04
        51  7.970947E-05  9.983305E-04 -1.450079E-04
        74  7.596114E-05  1.013526E-03  1.447806E-04
        75  1.235401E-05  7.549755E-04  2.543455E-04
        76 -1.846839E-05  5.684525E-04  2.653932E-04
        77  3.065226E-05  2.304002E-04  1.722687E-04
        89 -7.715571E-05  1.014720E-03  1.467554E-04
        90 -1.219461E-05  7.548160E-04  2.548907E-04
        91  1.829682E-05  5.686240E-04  2.653391E-04
        92 -3.063124E-05  2.303792E-04  1.722046E-04
        98  0.000000E+00  0.000000E+00  0.000000E+00
        99  0.000000E+00  0.000000E+00  0.000000E+00
       100  0.000000E+00  0.000000E+00  0.000000E+00
       101  0.000000E+00  0.000000E+00  0.000000E+00
       102  0.000000E+00  0.000000E+00  0.000000E+00
       124  3.900941E-05  9.178353E-04 -1.381784E-04
       125  1.640221E-07  1.018685E-03 -1.482214E-04
       126 -3.834663E-05  9.171541E-04 -1.374859E-04
       127 -2.593441E-08  7.852065E-04 -2.309787E-04
       128 -1.143150E-05  5.844452E-04 -2.818087E-04
       129 -7.493155E-09  5.472246E-04 -2.857584E-04
       130  1.151463E-05  5.843842E-04 -2.817426E-04
       131  5.619446E-09  2.316999E-04 -1.692314E-04
       153  5.118595E-05  1.205413E-03 -6.479712E-05
       154  1.764426E-06  1.039742E-03 -9.839374E-07
       155 -5.158601E-05  1.209788E-03  6.431495E-05
       156  1.859568E-06  8.092691E-04  4.448241E-07
       157 -1.134899E-05  5.039014E-04 -1.134010E-04
       158 -1.372965E-06  5.338002E-04 -1.630242E-08
       159  1.132522E-05  5.032263E-04  1.130559E-04
       160 -4.765283E-07  1.991635E-04 -1.812510E-07
       182  3.992632E-05  9.114782E-04  1.378229E-04
       183 -1.641677E-07  1.029299E-03  1.479550E-04
       184 -4.058950E-05  9.121599E-04  1.385159E-04
       185  2.589821E-08  7.891645E-04  2.296885E-04
       186 -1.109380E-05  5.861705E-04  2.820729E-04
       187  7.425813E-09  5.444947E-04  2.861344E-04
       188  1.101053E-05  5.862316E-04  2.821389E-04
       189 -5.623434E-09  2.305088E-04  1.691844E-04
       211  5.090430E-05  1.210451E-03  6.500787E-05
       212 -1.764333E-06  1.040070E-03 -9.841547E-07
       213 -5.050430E-05  1.206076E-03 -6.549005E-05
       214 -1.859693E-06  8.092171E-04  4.448347E-07
       215 -1.138629E-05  5.033095E-04  1.131220E-04
       216  1.372996E-06  5.337854E-04 -1.626384E-08
       217  1.141000E-05  5.039845E-04 -1.134670E-04
       218  4.765129E-07  1.991748E-04 -1.812529E-07
       250  1.513848E-07  1.060406E-03 -6.282943E-05
       251 -2.033351E-07  7.616515E-04 -1.770512E-06