    1C
    1UUSER                                                              
    1UDATE              10.july.2018                                    
    1UTIME              17:16:17                                        
    1UHOST                                                              
    1UPGM               CalculiX                                        
    1UVERSION           Version 2.13                             
    1UCOMPILETIME       jue jun 14 00:40:39 CEST 2018                    
    1UDIR                                                               
    1UDBN                                                               
    1UMAT    1EL                                                        
    2C                            81                                     1
 -1         5 0.00000E+00 0.00000E+00 8.00000E+00
 -1         6 1.00000E+00 0.00000E+00 8.00000E+00
 -1         7 1.00000E+00 1.00000E+00 8.00000E+00
 -1         8 0.00000E+00 1.00000E+00 8.00000E+00
 -1        21 2.50000E-01 0.00000E+00 8.00000E+00
 -1        22 5.00000E-01 0.00000E+00 8.00000E+00
 -1        23 7.50000E-01 0.00000E+00 8.00000E+00
 -1        24 1.00000E+00 2.50000E-01 8.00000E+00
 -1        25 1.00000E+00 5.00000E-01 8.00000E+00
 -1        26 1.00000E+00 7.50000E-01 8.00000E+00
 -1        27 7.50000E-01 1.00000E+00 8.00000E+00
 -1        28 5.00000E-01 1.00000E+00 8.00000E+00
 -1        29 2.50000E-01 1.00000E+00 8.00000E+00
 -1        30 0.00000E+00 7.50000E-01 8.00000E+00
 -1        31 0.00000E+00 5.00000E-01 8.00000E+00
 -1        32 0.00000E+00 2.50000E-01 8.00000E+00
 -1        44 1.00000E+00 0.00000E+00 6.00000E+00
 -1        45 1.00000E+00 0.00000E+00 6.50000E+00
 -1        46 1.00000E+00 0.00000E+00 7.00000E+00
 -1        47 1.00000E+00 0.00000E+00 7.50000E+00
 -1        48 0.00000E+00 0.00000E+00 7.50000E+00
 -1        49 0.00000E+00 0.00000E+00 7.00000E+00
 -1        50 0.00000E+00 0.00000E+00 6.50000E+00
 -1        51 0.00000E+00 0.00000E+00 6.00000E+00
 -1        74 1.00000E+00 1.00000E+00 6.00000E+00
 -1        75 1.00000E+00 1.00000E+00 6.50000E+00
 -1        76 1.00000E+00 1.00000E+00 7.00000E+00
 -1        77 1.00000E+00 1.00000E+00 7.50000E+00
 -1        89 0.00000E+00 1.00000E+00 6.00000E+00
 -1        90 0.00000E+00 1.00000E+00 6.50000E+00
 -1        91 0.00000E+00 1.00000E+00 7.00000E+00
 -1        92 0.00000E+00 1.00000E+00 7.50000E+00
 -1        98 5.00000E-01 2.50000E-01 8.00000E+00
 -1        99 2.50000E-01 5.00000E-01 8.00000E+00
 -1       100 5.00000E-01 5.00000E-01 8.00000E+00
 -1       101 7.50000E-01 5.00000E-01 8.00000E+00
 -1       102 5.00000E-01 7.50000E-01 8.00000E+00
 -1       124 2.50000E-01 0.00000E+00 6.00000E+00
 -1       125 5.00000E-01 0.00000E+00 6.00000E+00
 -1       126 7.50000E-01 0.00000E+00 6.00000E+00
 -1       127 5.00000E-01 0.00000E+00 6.50000E+00
 -1       128 2.50000E-01 0.00000E+00 7.00000E+00
 -1       129 5.00000E-01 0.00000E+00 7.00000E+00
 -1       130 7.50000E-01 0.00000E+00 7.00000E+00
 -1       131 5.00000E-01 0.00000E+00 7.50000E+00
 -1       153 1.00000E+00 2.50000E-01 6.00000E+00
 -1       154 1.00000E+00 5.00000E-01 6.00000E+00
 -1       155 1.00000E+00 7.50000E-01 6.00000E+00
 -1       156 1.00000E+00 5.00000E-01 6.50000E+00
 -1       157 1.00000E+00 2.50000E-01 7.00000E+00
 -1       158 1.00000E+00 5.00000E-01 7.00000E+00
 -1       159 1.00000E+00 7.50000E-01 7.00000E+00
 -1       160 1.00000E+00 5.00000E-01 7.50000E+00
 -1       182 7.50000E-01 1.00000E+00 6.00000E+00
 -1       183 5.00000E-01 1.00000E+00 6.00000E+00
 -1       184 2.50000E-01 1.00000E+00 6.00000E+00
 -1       185 5.00000E-01 1.00000E+00 6.50000E+00
 -1       186 7.50000E-01 1.00000E+00 7.00000E+00
 -1       187 5.00000E-01 1.00000E+00 7.00000E+00
 -1       188 2.50000E-01 1.00000E+00 7.00000E+00
 -1       189 5.00000E-01 1.00000E+00 7.50000E+00
 -1       211 0.00000E+00 7.50000E-01 6.00000E+00
 -1       212 0.00000E+00 5.00000E-01 6.00000E+00
 -1       213 0.00000E+00 2.50000E-01 6.00000E+00
 -1       214 0.00000E+00 5.00000E-01 6.50000E+00
 -1       215 0.00000E+00 7.50000E-01 7.00000E+00
 -1       216 0.00000E+00 5.00000E-01 7.00000E+00
 -1       217 0.00000E+00 2.50000E-01 7.00000E+00
 -1       218 0.00000E+00 5.00000E-01 7.50000E+00
 -1       250 5.00000E-01 2.50000E-01 6.00000E+00
 -1       251 2.50000E-01 5.00000E-01 6.00000E+00
 -1       252 5.00000E-01 5.00000E-01 6.00000E+00
 -1       253 7.50000E-01 5.00000E-01 6.00000E+00
 -1       254 5.00000E-01 7.50000E-01 6.00000E+00
 -1       255 5.00000E-01 5.00000E-01 6.50000E+00
 -1       256 5.00000E-01 2.50000E-01 7.00000E+00
 -1       257 2.50000E-01 5.00000E-01 7.00000E+00
 -1       258 5.00000E-01 5.00000E-01 7.00000E+00
 -1       259 7.50000E-01 5.00000E-01 7.00000E+00
 -1       260 5.00000E-01 7.50000E-01 7.00000E+00
 -1       261 5.00000E-01 5.00000E-01 7.50000E+00
 -3
    3C                             8                                     1
 -1        25    4    0    1
 -2        51       125       252       212        49       129       258       216       124       250
 -2       251       213        50       127       255       214       128       256       257       217
 -1        26    4    0    1
 -2       125        44       154       252       129        46       158       258       126       153
 -2       253       250       127        45       156       255       130       157       259       256
 -1        27    4    0    1
 -2       212       252       183        89       216       258       187        91       251       254
 -2       184       211       214       255       185        90       257       260       188       215
 -1        28    4    0    1
 -2       252       154        74       183       258       158        76       187       253       155
 -2       182       254       255       156        75       185       259       159       186       260
 -1        29    4    0    1
 -2        49       129       258       216         5        22       100        31       128       256
 -2       257       217        48       131       261       218        21        98        99        32
 -1        30    4    0    1
 -2       129        46       158       258        22         6        25       100       130       157
 -2       259       256       131        47       160       261        23        24       101        98
 -1        31    4    0    1
 -2       216       258       187        91        31       100        28         8       257       260
 -2       188       215       218       261       189        92        99       102        29        30
 -1        32    4    0    1
 -2       258       158        76       187       100        25         7        28       259       159
 -2       186       260       261       160        77       189       101        26        27       102
 -3
    1PSTEP                         1           1           1          
  100CL  101 1.00000E-02          81                     1    1           1
 -4  DISP        4    1
 -5  D1          1    2    1    0
 -5  D2          1    2    2    0
 -5  D3          1    2    3    0
 -5  ALL         1    2    0    0    1ALL
 -1         5 0.00000E+00 0.00000E+00 0.00000E+00
 -1         6 0.00000E+00 0.00000E+00 0.00000E+00
 -1         7 0.00000E+00 0.00000E+00 0.00000E+00
 -1         8 0.00000E+00 0.00000E+00 0.00000E+00
 -1        21 0.00000E+00 0.00000E+00 0.00000E+00
 -1        22 0.00000E+00 0.00000E+00 0.00000E+00
 -1        23 0.00000E+00 0.00000E+00 0.00000E+00
 -1        24 0.00000E+00 0.00000E+00 0.00000E+00
 -1        25 0.00000E+00 0.00000E+00 0.00000E+00
 -1        26 0.00000E+00 0.00000E+00 0.00000E+00
 -1        27 0.00000E+00 0.00000E+00 0.00000E+00
 -1        28 0.00000E+00 0.00000E+00 0.00000E+00
 -1        29 0.00000E+00 0.00000E+00 0.00000E+00
 -1        30 0.00000E+00 0.00000E+00 0.00000E+00
 -1        31 0.00000E+00 0.00000E+00 0.00000E+00
 -1        32 0.00000E+00 0.00000E+00 0.00000E+00
 -1        44 5.96508E-05-1.99609E-03 2.77134E-04
 -1        45 7.94824E-06-1.52041E-03 4.88140E-04
 -1        46-3.66363E-05-1.10672E-03 5.13013E-04
 -1        47 6.47026E-05-4.61133E-04 3.44926E-04
 -1        48-6.47026E-05-4.61134E-04 3.44926E-04
 -1        49 3.66367E-05-1.10672E-03 5.13013E-04
 -1        50-7.94858E-06-1.52041E-03 4.88139E-04
 -1        51-5.96472E-05-1.99608E-03 2.77128E-04
 -1        74-5.14396E-05-2.02747E-03-2.80726E-04
 -1        75-2.37464E-06-1.53205E-03-4.90282E-04
 -1        76 3.21813E-05-1.10414E-03-5.14351E-04
 -1        77-6.78837E-05-4.55025E-04-3.45739E-04
 -1        89 5.14362E-05-2.02747E-03-2.80720E-04
 -1        90 2.37508E-06-1.53205E-03-4.90281E-04
 -1        91-3.21817E-05-1.10414E-03-5.14351E-04
 -1        92 6.78838E-05-4.55025E-04-3.45739E-04
 -1        98 0.00000E+00 0.00000E+00 0.00000E+00
 -1        99 0.00000E+00 0.00000E+00 0.00000E+00
 -1       100 0.00000E+00 0.00000E+00 0.00000E+00
 -1       101 0.00000E+00 0.00000E+00 0.00000E+00
 -1       102 0.00000E+00 0.00000E+00 0.00000E+00
 -1       124-6.12192E-06-1.80919E-03 2.63127E-04
 -1       125 7.13642E-10-2.01125E-03 2.79053E-04
 -1       126 6.12416E-06-1.80919E-03 2.63129E-04
 -1       127-1.21357E-10-1.53470E-03 4.55176E-04
 -1       128 1.54887E-05-1.15381E-03 5.50391E-04
 -1       129 3.85401E-11-1.09883E-03 5.62909E-04
 -1       130-1.54885E-05-1.15381E-03 5.50392E-04
 -1       131 1.53376E-11-4.60094E-04 3.29518E-04
 -1       153-1.01396E-04-2.40658E-03 1.26788E-04
 -1       154-2.91412E-06-2.14649E-03-9.29538E-07
 -1       155 1.01554E-04-2.41691E-03-1.31094E-04
 -1       156-1.98899E-06-1.58883E-03-2.83042E-06
 -1       157 1.47334E-05-1.00781E-03 2.16247E-04
 -1       158 3.05614E-06-1.08458E-03-3.95611E-07
 -1       159-1.14751E-05-1.00856E-03-2.16622E-04
 -1       160 1.31021E-06-3.91075E-04 7.68803E-07
 -1       182-6.69705E-06-1.79636E-03-2.64701E-04
 -1       183-6.30883E-10-2.03775E-03-2.80603E-04
 -1       184 6.69503E-06-1.79636E-03-2.64698E-04
 -1       185 1.52291E-10-1.54917E-03-4.55312E-04
 -1       186 1.45943E-05-1.16805E-03-5.54272E-04
 -1       187-6.55815E-12-1.11029E-03-5.67546E-04
 -1       188-1.45946E-05-1.16805E-03-5.54272E-04
 -1       189-6.67555E-12-4.62015E-04-3.31258E-04
 -1       211-1.01556E-04-2.41691E-03-1.31092E-04
 -1       212 2.91425E-06-2.14649E-03-9.29548E-07
 -1       213 1.01398E-04-2.40658E-03 1.26786E-04
 -1       214 1.98907E-06-1.58883E-03-2.83044E-06
 -1       215 1.14750E-05-1.00856E-03-2.16622E-04
 -1       216-3.05615E-06-1.08458E-03-3.95634E-07
 -1       217-1.47332E-05-1.00781E-03 2.16247E-04
 -1       218-1.31021E-06-3.91075E-04 7.68791E-07
 -1       250 6.02136E-10-2.03289E-03 1.10477E-04
 -1       251-4.16534E-07-1.52480E-03 3.35226E-06
 -1       252 2.22388E-11-1.54151E-03 1.23114E-06
 -1       253 4.16581E-07-1.52481E-03 3.35227E-06
 -1       254-5.22563E-10-2.04900E-03-1.23201E-04
 -1       255 1.59369E-11-1.69462E-03-1.11469E-06
 -1       256-4.10227E-11-9.47959E-04 2.52061E-04
 -1       257-1.54801E-06-1.09200E-03-1.28933E-06
 -1       258 1.20086E-11-9.35975E-04-1.11808E-06
 -1       259 1.54803E-06-1.09200E-03-1.28932E-06
 -1       260 6.39373E-11-9.52460E-04-2.52310E-04
 -1       261 3.59083E-12-4.35299E-04 8.27535E-08
 -3
    1PSTEP                         2           2           1          
  100CL  102 2.00000E-02          81                     1    2           1
 -4  DISP        4    1
 -5  D1          1    2    1    0
 -5  D2          1    2    2    0
 -5  D3          1    2    3    0
 -5  ALL         1    2    0    0    1ALL
 -1         5 0.00000E+00 0.00000E+00 0.00000E+00
 -1         6 0.00000E+00 0.00000E+00 0.00000E+00
 -1         7 0.00000E+00 0.00000E+00 0.00000E+00
 -1         8 0.00000E+00 0.00000E+00 0.00000E+00
 -1        21 0.00000E+00 0.00000E+00 0.00000E+00
 -1        22 0.00000E+00 0.00000E+00 0.00000E+00
 -1        23 0.00000E+00 0.00000E+00 0.00000E+00
 -1        24 0.00000E+00 0.00000E+00 0.00000E+00
 -1        25 0.00000E+00 0.00000E+00 0.00000E+00
 -1        26 0.00000E+00 0.00000E+00 0.00000E+00
 -1        27 0.00000E+00 0.00000E+00 0.00000E+00
 -1        28 0.00000E+00 0.00000E+00 0.00000E+00
 -1        29 0.00000E+00 0.00000E+00 0.00000E+00
 -1        30 0.00000E+00 0.00000E+00 0.00000E+00
 -1        31 0.00000E+00 0.00000E+00 0.00000E+00
 -1        32 0.00000E+00 0.00000E+00 0.00000E+00
 -1        44-1.48361E-04 1.63964E-03-2.39614E-04
 -1        45-2.75111E-05 1.22549E-03-4.19126E-04
 -1        46 3.13183E-05 9.40077E-04-4.43829E-04
 -1        47-4.69488E-05 3.79984E-04-2.84026E-04
 -1        48 4.69482E-05 3.79984E-04-2.84024E-04
 -1        49-3.13137E-05 9.40082E-04-4.43828E-04
 -1        50 2.75068E-05 1.22548E-03-4.19141E-04
 -1        51 1.48393E-04 1.63967E-03-2.39666E-04
 -1        74 1.40865E-04 1.66455E-03 2.37888E-04
 -1        75 2.15954E-05 1.23693E-03 4.18354E-04
 -1        76-2.78356E-05 9.33523E-04 4.43700E-04
 -1        77 4.88360E-05 3.76029E-04 2.84246E-04
 -1        89-1.40897E-04 1.66459E-03 2.37941E-04
 -1        90-2.15911E-05 1.23692E-03 4.18369E-04
 -1        91 2.78310E-05 9.33528E-04 4.43699E-04
 -1        92-4.88354E-05 3.76029E-04 2.84244E-04
 -1        98 0.00000E+00 0.00000E+00 0.00000E+00
 -1        99 0.00000E+00 0.00000E+00 0.00000E+00
 -1       100 0.00000E+00 0.00000E+00 0.00000E+00
 -1       101 0.00000E+00 0.00000E+00 0.00000E+00
 -1       102 0.00000E+00 0.00000E+00 0.00000E+00
 -1       124 7.47213E-05 1.50902E-03-2.33639E-04
 -1       125 4.23215E-09 1.68110E-03-2.25824E-04
 -1       126-7.47037E-05 1.50900E-03-2.33621E-04
 -1       127-6.62034E-10 1.28687E-03-3.77854E-04
 -1       128-1.84856E-05 9.60745E-04-4.64038E-04
 -1       129-2.45727E-10 8.98049E-04-4.72466E-04
 -1       130 1.84878E-05 9.60744E-04-4.64037E-04
 -1       131 1.50460E-10 3.77287E-04-2.77204E-04
 -1       153 8.18206E-05 1.99194E-03-1.13084E-04
 -1       154 4.29645E-06 1.70595E-03 1.12977E-07
 -1       155-8.20662E-05 1.99850E-03 1.13919E-04
 -1       156 3.05387E-06 1.32607E-03 1.23701E-06
 -1       157-2.16383E-05 8.23701E-04-1.88223E-04
 -1       158-2.23612E-06 8.73947E-04 1.55779E-07
 -1       159 2.12658E-05 8.21990E-04 1.87665E-04
 -1       160-8.31065E-07 3.24860E-04-8.77899E-08
 -1       182 7.60520E-05 1.49477E-03 2.31137E-04
 -1       183-4.30181E-09 1.69798E-03 2.23539E-04
 -1       184-7.60697E-05 1.49479E-03 2.31155E-04
 -1       185 6.39828E-10 1.29517E-03 3.75955E-04
 -1       186-1.80019E-05 9.64025E-04 4.65476E-04
 -1       187 2.17504E-10 8.93852E-04 4.73975E-04
 -1       188 1.79997E-05 9.64026E-04 4.65478E-04
 -1       189-1.57456E-10 3.75270E-04 2.77552E-04
 -1       211 8.20480E-05 1.99851E-03 1.13937E-04
 -1       212-4.29655E-06 1.70596E-03 1.12976E-07
 -1       213-8.18024E-05 1.99196E-03-1.13103E-04
 -1       214-3.05394E-06 1.32607E-03 1.23702E-06
 -1       215-2.12675E-05 8.21992E-04 1.87667E-04
 -1       216 2.23613E-06 8.73947E-04 1.55798E-07
 -1       217 2.16399E-05 8.23703E-04-1.88225E-04
 -1       218 8.31069E-07 3.24860E-04-8.77810E-08
 -1       250 3.94212E-09 1.75025E-03-8.68320E-05
 -1       251-6.94236E-07 1.23886E-03-1.98666E-06
 -1       252-1.52550E-11 1.37363E-03-1.75870E-07
 -1       253 6.94205E-07 1.23885E-03-1.98666E-06
 -1       254-4.00761E-09 1.75946E-03 9.27066E-05
 -1       255-1.17944E-11 1.41228E-03 1.18929E-07
 -1       256-6.54745E-10 7.78158E-04-2.11322E-04
 -1       257 7.52215E-07 9.02217E-04 3.68770E-07
 -1       258-9.55088E-12 7.76919E-04 1.99197E-07
 -1       259-7.52226E-07 9.02218E-04 3.68761E-07
 -1       260 6.36027E-10 7.75770E-04 2.10667E-04
 -1       261-3.10857E-12 3.48773E-04 3.29571E-07
 -3
    1PSTEP                         3           3           1          
  100CL  103 3.00000E-02          81                     1    3           1
 -4  DISP        4    1
 -5  D1          1    2    1    0
 -5  D2          1    2    2    0
 -5  D3          1    2    3    0
 -5  ALL         1    2    0    0    1ALL
 -1         5 0.00000E+00 0.00000E+00 0.00000E+00
 -1         6 0.00000E+00 0.00000E+00 0.00000E+00
 -1         7 0.00000E+00 0.00000E+00 0.00000E+00
 -1         8 0.00000E+00 0.00000E+00 0.00000E+00
 -1        21 0.00000E+00 0.00000E+00 0.00000E+00
 -1        22 0.00000E+00 0.00000E+00 0.00000E+00
 -1        23 0.00000E+00 0.00000E+00 0.00000E+00
 -1        24 0.00000E+00 0.00000E+00 0.00000E+00
 -1        25 0.00000E+00 0.00000E+00 0.00000E+00
 -1        26 0.00000E+00 0.00000E+00 0.00000E+00
 -1        27 0.00000E+00 0.00000E+00 0.00000E+00
 -1        28 0.00000E+00 0.00000E+00 0.00000E+00
 -1        29 0.00000E+00 0.00000E+00 0.00000E+00
 -1        30 0.00000E+00 0.00000E+00 0.00000E+00
 -1        31 0.00000E+00 0.00000E+00 0.00000E+00
 -1        32 0.00000E+00 0.00000E+00 0.00000E+00
 -1        44 9.18739E-05-1.30916E-03 1.91240E-04
 -1        45 1.79336E-05-9.77948E-04 3.31579E-04
 -1        46-2.48549E-05-7.39289E-04 3.47905E-04
 -1        47 3.89273E-05-3.00605E-04 2.25264E-04
 -1        48-3.89436E-05-3.00621E-04 2.25313E-04
 -1        49 2.49886E-05-7.39155E-04 3.47948E-04
 -1        50-1.80579E-05-9.78072E-04 3.31153E-04
 -1        51-9.09414E-05-1.30823E-03 1.89699E-04
 -1        74-8.76558E-05-1.32924E-03-1.91332E-04
 -1        75-1.31082E-05-9.86423E-04-3.30928E-04
 -1        76 2.19535E-05-7.34213E-04-3.47380E-04
 -1        77-4.02933E-05-2.97539E-04-2.25242E-04
 -1        89 8.67232E-05-1.32831E-03-1.89790E-04
 -1        90 1.32325E-05-9.86547E-04-3.30502E-04
 -1        91-2.20872E-05-7.34080E-04-3.47422E-04
 -1        92 4.03097E-05-2.97555E-04-2.25292E-04
 -1        98 0.00000E+00 0.00000E+00 0.00000E+00
 -1        99 0.00000E+00 0.00000E+00 0.00000E+00
 -1       100 0.00000E+00 0.00000E+00 0.00000E+00
 -1       101 0.00000E+00 0.00000E+00 0.00000E+00
 -1       102 0.00000E+00 0.00000E+00 0.00000E+00
 -1       124-4.11165E-05-1.19612E-03 1.84602E-04
 -1       125 1.28636E-07-1.32887E-03 1.86242E-04
 -1       126 4.16346E-05-1.19665E-03 1.85143E-04
 -1       127-2.03781E-08-1.01737E-03 3.02295E-04
 -1       128 1.34250E-05-7.59202E-04 3.66777E-04
 -1       129-5.71766E-09-7.12512E-04 3.73727E-04
 -1       130-1.33600E-05-7.59249E-04 3.66828E-04
 -1       131 4.37580E-09-2.99365E-04 2.19105E-04
 -1       153-6.70718E-05-1.58215E-03 8.79420E-05
 -1       154-3.31128E-06-1.36960E-03 9.40754E-08
 -1       155 6.63263E-05-1.58763E-03-8.86688E-05
 -1       156-2.20070E-06-1.04946E-03-6.95232E-07
 -1       157 1.47186E-05-6.53889E-04 1.48013E-04
 -1       158 1.64264E-06-6.95451E-04 8.53723E-08
 -1       159-1.46441E-05-6.52500E-04-1.47280E-04
 -1       160 6.08447E-07-2.56432E-04 1.47059E-07
 -1       182-4.32838E-05-1.18654E-03-1.83650E-04
 -1       183-1.28615E-07-1.34259E-03-1.84694E-04
 -1       184 4.27657E-05-1.18601E-03-1.83108E-04
 -1       185 2.03858E-08-1.02329E-03-3.00430E-04
 -1       186 1.28403E-05-7.61570E-04-3.67720E-04
 -1       187 5.72598E-09-7.08822E-04-3.74718E-04
 -1       188-1.29053E-05-7.61523E-04-3.67668E-04
 -1       189-4.36972E-09-2.97565E-04-2.19170E-04
 -1       211-6.68587E-05-1.58711E-03-8.81271E-05
 -1       212 3.31140E-06-1.36934E-03 9.40117E-08
 -1       213 6.76042E-05-1.58163E-03 8.74003E-05
 -1       214 2.20073E-06-1.04950E-03-6.95235E-07
 -1       215 1.45965E-05-6.52435E-04-1.47228E-04
 -1       216-1.64264E-06-6.95462E-04 8.53666E-08
 -1       217-1.46711E-05-6.53824E-04 1.47961E-04
 -1       218-6.08456E-07-2.56423E-04 1.47048E-07
 -1       250 1.18564E-07-1.37424E-03 7.46631E-05
 -1       251 5.19374E-07-9.89951E-04 2.30214E-06
 -1       252 5.09807E-12-1.07106E-03 1.13292E-06
 -1       253-5.19347E-07-9.90189E-04 2.30216E-06
 -1       254-1.18546E-07-1.38180E-03-7.84894E-05
 -1       255 1.98880E-12-1.11562E-03 3.06358E-07
 -1       256-1.84280E-08-6.17243E-04 1.67248E-04
 -1       257-5.26191E-07-7.14013E-04-1.55009E-07
 -1       258 6.07707E-12-6.14978E-04 8.60454E-09
 -1       259 5.26203E-07-7.13977E-04-1.55002E-07
 -1       260 1.84372E-08-6.15136E-04-1.66449E-04
 -1       261 2.09433E-13-2.77907E-04-2.00544E-07
 -3
    1PSTEP                         4           4           1          
  100CL  104 4.00000E-02          81                     1    4           1
 -4  DISP        4    1
 -5  D1          1    2    1    0
 -5  D2          1    2    2    0
 -5  D3          1    2    3    0
 -5  ALL         1    2    0    0    1ALL
 -1         5 0.00000E+00 0.00000E+00 0.00000E+00
 -1         6 0.00000E+00 0.00000E+00 0.00000E+00
 -1         7 0.00000E+00 0.00000E+00 0.00000E+00
 -1         8 0.00000E+00 0.00000E+00 0.00000E+00
 -1        21 0.00000E+00 0.00000E+00 0.00000E+00
 -1        22 0.00000E+00 0.00000E+00 0.00000E+00
 -1        23 0.00000E+00 0.00000E+00 0.00000E+00
 -1        24 0.00000E+00 0.00000E+00 0.00000E+00
 -1        25 0.00000E+00 0.00000E+00 0.00000E+00
 -1        26 0.00000E+00 0.00000E+00 0.00000E+00
 -1        27 0.00000E+00 0.00000E+00 0.00000E+00
 -1        28 0.00000E+00 0.00000E+00 0.00000E+00
 -1        29 0.00000E+00 0.00000E+00 0.00000E+00
 -1        30 0.00000E+00 0.00000E+00 0.00000E+00
 -1        31 0.00000E+00 0.00000E+00 0.00000E+00
 -1        32 0.00000E+00 0.00000E+00 0.00000E+00
 -1        44-7.85155E-05 9.97137E-04-1.43034E-04
 -1        45-1.57480E-05 7.49599E-04-2.54791E-04
 -1        46 2.07255E-05 5.71682E-04-2.65976E-04
 -1        47-2.98006E-05 2.32599E-04-1.72346E-04
 -1        48 2.97796E-05 2.32578E-04-1.72282E-04
 -1        49-2.05541E-05 5.71853E-04-2.65922E-04
 -1        50 1.55885E-05 7.49440E-04-2.55336E-04
 -1        51 7.97095E-05 9.98331E-04-1.45008E-04
 -1        74 7.59611E-05 1.01353E-03 1.44781E-04
 -1        75 1.23540E-05 7.54976E-04 2.54345E-04
 -1        76-1.84684E-05 5.68452E-04 2.65393E-04
 -1        77 3.06523E-05 2.30400E-04 1.72269E-04
 -1        89-7.71557E-05 1.01472E-03 1.46755E-04
 -1        90-1.21946E-05 7.54816E-04 2.54891E-04
 -1        91 1.82968E-05 5.68624E-04 2.65339E-04
 -1        92-3.06312E-05 2.30379E-04 1.72205E-04
 -1        98 0.00000E+00 0.00000E+00 0.00000E+00
 -1        99 0.00000E+00 0.00000E+00 0.00000E+00
 -1       100 0.00000E+00 0.00000E+00 0.00000E+00
 -1       101 0.00000E+00 0.00000E+00 0.00000E+00
 -1       102 0.00000E+00 0.00000E+00 0.00000E+00
 -1       124 3.90094E-05 9.17835E-04-1.38178E-04
 -1       125 1.64022E-07 1.01869E-03-1.48221E-04
 -1       126-3.83466E-05 9.17154E-04-1.37486E-04
 -1       127-2.59344E-08 7.85206E-04-2.30979E-04
 -1       128-1.14315E-05 5.84445E-04-2.81809E-04
 -1       129-7.49316E-09 5.47225E-04-2.85758E-04
 -1       130 1.15146E-05 5.84384E-04-2.81743E-04
 -1       131 5.61945E-09 2.31700E-04-1.69231E-04
 -1       153 5.11859E-05 1.20541E-03-6.47971E-05
 -1       154 1.76443E-06 1.03974E-03-9.83937E-07
 -1       155-5.15860E-05 1.20979E-03 6.43149E-05
 -1       156 1.85957E-06 8.09269E-04 4.44824E-07
 -1       157-1.13490E-05 5.03901E-04-1.13401E-04
 -1       158-1.37296E-06 5.33800E-04-1.63024E-08
 -1       159 1.13252E-05 5.03226E-04 1.13056E-04
 -1       160-4.76528E-07 1.99164E-04-1.81251E-07
 -1       182 3.99263E-05 9.11478E-04 1.37823E-04
 -1       183-1.64168E-07 1.02930E-03 1.47955E-04
 -1       184-4.05895E-05 9.12160E-04 1.38516E-04
 -1       185 2.58982E-08 7.89164E-04 2.29688E-04
 -1       186-1.10938E-05 5.86171E-04 2.82073E-04
 -1       187 7.42581E-09 5.44495E-04 2.86134E-04
 -1       188 1.10105E-05 5.86232E-04 2.82139E-04
 -1       189-5.62343E-09 2.30509E-04 1.69184E-04
 -1       211 5.09043E-05 1.21045E-03 6.50079E-05
 -1       212-1.76433E-06 1.04007E-03-9.84155E-07
 -1       213-5.05043E-05 1.20608E-03-6.54901E-05
 -1       214-1.85969E-06 8.09217E-04 4.44835E-07
 -1       215-1.13863E-05 5.03310E-04 1.13122E-04
 -1       216 1.37300E-06 5.33785E-04-1.62638E-08
 -1       217 1.14100E-05 5.03985E-04-1.13467E-04
 -1       218 4.76513E-07 1.99175E-04-1.81253E-07
 -1       250 1.51385E-07 1.06041E-03-6.28294E-05
 -1       251-2.03335E-07 7.61651E-04-1.77051E-06
 -1       252-3.51683E-11 8.38339E-04-7.09827E-07
 -1       253 2.03339E-07 7.61348E-04-1.77047E-06
 -1       254-1.51532E-07 1.06587E-03 6.52484E-05
 -1       255-2.44533E-11 8.56252E-04-2.51854E-07
 -1       256-2.36785E-08 4.77579E-04-1.27097E-04
 -1       257 5.03856E-07 5.51191E-04 3.48003E-08
 -1       258-1.59980E-11 4.78107E-04-5.64729E-08
 -1       259-5.03856E-07 5.51238E-04 3.47960E-08
 -1       260 2.36406E-08 4.76105E-04 1.26525E-04
 -1       261-8.77108E-12 2.14008E-04 1.33844E-07
 -3
    1PSTEP                         5           5           1          
  100CL  105 5.00000E-02          81                     1    5           1
 -4  DISP        4    1
 -5  D1          1    2    1    0
 -5  D2          1    2    2    0
 -5  D3          1    2    3    0
 -5  ALL         1    2    0    0    1ALL
 -1         5 0.00000E+00 0.00000E+00 0.00000E+00
 -1         6 0.00000E+00 0.00000E+00 0.00000E+00
 -1         7 0.00000E+00 0.00000E+00 0.00000E+00
 -1         8 0.00000E+00 0.00000E+00 0.00000E+00
 -1        21 0.00000E+00 0.00000E+00 0.00000E+00
 -1        22 0.00000E+00 0.00000E+00 0.00000E+00
 -1        23 0.00000E+00 0.00000E+00 0.00000E+00
 -1        24 0.00000E+00 0.00000E+00 0.00000E+00
 -1        25 0.00000E+00 0.00000E+00 0.00000E+00
 -1        26 0.00000E+00 0.00000E+00 0.00000E+00
 -1        27 0.00000E+00 0.00000E+00 0.00000E+00
 -1        28 0.00000E+00 0.00000E+00 0.00000E+00
 -1        29 0.00000E+00 0.00000E+00 0.00000E+00
 -1        30 0.00000E+00 0.00000E+00 0.00000E+00
 -1        31 0.00000E+00 0.00000E+00 0.00000E+00
 -1        32 0.00000E+00 0.00000E+00 0.00000E+00
 -1        44 5.14603E-05-7.66439E-04 1.15366E-04
 -1        45 7.34665E-06-5.72998E-04 1.91046E-04
 -1        46-1.30818E-05-4.29059E-04 2.02847E-04
 -1        47 2.29389E-05-1.75245E-04 1.32276E-04
 -1        48-2.30555E-05-1.75361E-04 1.32632E-04
 -1        49 1.40342E-05-4.28107E-04 2.03148E-04
 -1        50-8.23251E-06-5.73883E-04 1.88016E-04
 -1        51-4.48247E-05-7.59806E-04 1.04396E-04
 -1        74-4.87269E-05-7.74517E-04-1.12196E-04
 -1        75-4.64203E-06-5.78183E-04-1.89919E-04
 -1        76 1.19301E-05-4.25872E-04-2.02266E-04
 -1        77-2.36932E-05-1.73659E-04-1.32138E-04
 -1        89 4.20889E-05-7.67880E-04-1.01221E-04
 -1        90 5.52752E-06-5.79069E-04-1.86888E-04
 -1        91-1.28831E-05-4.24919E-04-2.02567E-04
 -1        92 2.38099E-05-1.73775E-04-1.32494E-04
 -1        98 0.00000E+00 0.00000E+00 0.00000E+00
 -1        99 0.00000E+00 0.00000E+00 0.00000E+00
 -1       100 0.00000E+00 0.00000E+00 0.00000E+00
 -1       101 0.00000E+00 0.00000E+00 0.00000E+00
 -1       102 0.00000E+00 0.00000E+00 0.00000E+00
 -1       124-1.60196E-05-6.93512E-04 1.05939E-04
 -1       125 9.12849E-07-7.77550E-04 1.03921E-04
 -1       126 1.97043E-05-6.97298E-04 1.09789E-04
 -1       127-1.44470E-07-5.89697E-04 1.76688E-04
 -1       128 6.74683E-06-4.43080E-04 2.13049E-04
 -1       129-4.12921E-08-4.17584E-04 2.17779E-04
 -1       130-6.28466E-06-4.43418E-04 2.13416E-04
 -1       131 3.12046E-08-1.74615E-04 1.26822E-04
 -1       153-3.71746E-05-9.26405E-04 5.54551E-05
 -1       154-3.39097E-06-8.07053E-04-1.14197E-06
 -1       155 3.59345E-05-9.27850E-04-5.59028E-05
 -1       156-1.17637E-06-6.10156E-04-4.83138E-07
 -1       157 8.43358E-06-3.81908E-04 8.56461E-05
 -1       158 7.96868E-07-4.07807E-04 1.54941E-07
 -1       159-8.47087E-06-3.81025E-04-8.48741E-05
 -1       160 4.51321E-07-1.48988E-04 1.25133E-07
 -1       182-2.08676E-05-6.89819E-04-1.07077E-04
 -1       183-9.13371E-07-7.83056E-04-1.01817E-04
 -1       184 1.71814E-05-6.86031E-04-1.03225E-04
 -1       185 1.44339E-07-5.92696E-04-1.74580E-04
 -1       186 6.35309E-06-4.44292E-04-2.13415E-04
 -1       187 4.10474E-08-4.15537E-04-2.17755E-04
 -1       188-6.81586E-06-4.43953E-04-2.13048E-04
 -1       189-3.12028E-08-1.73617E-04-1.26753E-04
 -1       211-3.97231E-05-9.24165E-04-5.20507E-05
 -1       212 3.39175E-06-8.05227E-04-1.14302E-06
 -1       213 4.09630E-05-9.22721E-04 5.16029E-05
 -1       214 1.17597E-06-6.10446E-04-4.83103E-07
 -1       215 8.13178E-06-3.80562E-04-8.45072E-05
 -1       216-7.96783E-07-4.07889E-04 1.55080E-07
 -1       217-8.09474E-06-3.81445E-04 8.52796E-05
 -1       218-4.51417E-07-1.48926E-04 1.25101E-07
 -1       250 8.42148E-07-7.97784E-04 3.65281E-05
 -1       251 1.05165E-06-5.73634E-04 9.30595E-07
 -1       252-1.47261E-10-6.11697E-04 6.80179E-07
 -1       253-1.05157E-06-5.75319E-04 9.30826E-07
 -1       254-8.42694E-07-8.00258E-04-3.70508E-05
 -1       255-9.29231E-11-6.51043E-04 1.11096E-07
 -1       256-1.31439E-07-3.59290E-04 9.86334E-05
 -1       257-2.37420E-07-4.16493E-04 4.73782E-08
 -1       258-5.35520E-11-3.56236E-04 2.35768E-07
 -1       259 2.37444E-07-4.16231E-04 4.73850E-08
 -1       260 1.31303E-07-3.58324E-04-9.79321E-05
 -1       261-3.38914E-11-1.63231E-04 4.58948E-08
 -3
    1PSTEP                         6           6           1          
  100CL  106 6.00000E-02          81                     1    6           1
 -4  DISP        4    1
 -5  D1          1    2    1    0
 -5  D2          1    2    2    0
 -5  D3          1    2    3    0
 -5  ALL         1    2    0    0    1ALL
 -1         5 0.00000E+00 0.00000E+00 0.00000E+00
 -1         6 0.00000E+00 0.00000E+00 0.00000E+00
 -1         7 0.00000E+00 0.00000E+00 0.00000E+00
 -1         8 0.00000E+00 0.00000E+00 0.00000E+00
 -1        21 0.00000E+00 0.00000E+00 0.00000E+00
 -1        22 0.00000E+00 0.00000E+00 0.00000E+00
 -1        23 0.00000E+00 0.00000E+00 0.00000E+00
 -1        24 0.00000E+00 0.00000E+00 0.00000E+00
 -1        25 0.00000E+00 0.00000E+00 0.00000E+00
 -1        26 0.00000E+00 0.00000E+00 0.00000E+00
 -1        27 0.00000E+00 0.00000E+00 0.00000E+00
 -1        28 0.00000E+00 0.00000E+00 0.00000E+00
 -1        29 0.00000E+00 0.00000E+00 0.00000E+00
 -1        30 0.00000E+00 0.00000E+00 0.00000E+00
 -1        31 0.00000E+00 0.00000E+00 0.00000E+00
 -1        32 0.00000E+00 0.00000E+00 0.00000E+00
 -1        44-2.56983E-05 5.39711E-04-7.52322E-05
 -1        45-5.21534E-06 4.05976E-04-1.33779E-04
 -1        46 1.07990E-05 3.05136E-04-1.40246E-04
 -1        47-1.66580E-05 1.25974E-04-9.29323E-05