    1C
    1UUSER                                                              
    1UDATE              09.july.2018                                    
    1UTIME              11:08:39                                        
    1UHOST                                                              
    1UPGM               CalculiX                                        
    1UVERSION           Version 2.13                             
    1UCOMPILETIME       jue jun 14 00:40:39 CEST 2018                    
    1UDIR                                                               
    1UDBN                                                               
    1UMAT    1EL                                                        
    2C                           201                                     1
 -1         1 0.00000E+00 0.00000E+00 0.00000E+00
 -1         2 1.00000E+00 0.00000E+00 0.00000E+00
 -1         3 1.00000E+00 1.00000E+00 0.00000E+00
 -1         4 0.00000E+00 1.00000E+00 0.00000E+00
 -1         9 2.50000E-01 0.00000E+00 0.00000E+00
 -1        10 5.00000E-01 0.00000E+00 0.00000E+00
 -1        11 7.50000E-01 0.00000E+00 0.00000E+00
 -1        12 1.00000E+00 2.50000E-01 0.00000E+00
 -1        13 1.00000E+00 5.00000E-01 0.00000E+00
 -1        14 1.00000E+00 7.50000E-01 0.00000E+00
 -1        15 7.50000E-01 1.00000E+00 0.00000E+00
 -1        16 5.00000E-01 1.00000E+00 0.00000E+00
 -1        17 2.50000E-01 1.00000E+00 0.00000E+00
 -1        18 0.00000E+00 7.50000E-01 0.00000E+00
 -1        19 0.00000E+00 5.00000E-01 0.00000E+00
 -1        20 0.00000E+00 2.50000E-01 0.00000E+00
 -1        33 1.00000E+00 0.00000E+00 5.00000E-01
 -1        34 1.00000E+00 0.00000E+00 1.00000E+00
 -1        35 1.00000E+00 0.00000E+00 1.50000E+00
 -1        36 1.00000E+00 0.00000E+00 2.00000E+00
 -1        37 1.00000E+00 0.00000E+00 2.50000E+00
 -1        38 1.00000E+00 0.00000E+00 3.00000E+00
 -1        39 1.00000E+00 0.00000E+00 3.50000E+00
 -1        40 1.00000E+00 0.00000E+00 4.00000E+00
 -1        41 1.00000E+00 0.00000E+00 4.50000E+00
 -1        42 1.00000E+00 0.00000E+00 5.00000E+00
 -1        43 1.00000E+00 0.00000E+00 5.50000E+00
 -1        44 1.00000E+00 0.00000E+00 6.00000E+00
 -1        51 0.00000E+00 0.00000E+00 6.00000E+00
 -1        52 0.00000E+00 0.00000E+00 5.50000E+00
 -1        53 0.00000E+00 0.00000E+00 5.00000E+00
 -1        54 0.00000E+00 0.00000E+00 4.50000E+00
 -1        55 0.00000E+00 0.00000E+00 4.00000E+00
 -1        56 0.00000E+00 0.00000E+00 3.50000E+00
 -1        57 0.00000E+00 0.00000E+00 3.00000E+00
 -1        58 0.00000E+00 0.00000E+00 2.50000E+00
 -1        59 0.00000E+00 0.00000E+00 2.00000E+00
 -1        60 0.00000E+00 0.00000E+00 1.50000E+00
 -1        61 0.00000E+00 0.00000E+00 1.00000E+00
 -1        62 0.00000E+00 0.00000E+00 5.00000E-01
 -1        63 1.00000E+00 1.00000E+00 5.00000E-01
 -1        64 1.00000E+00 1.00000E+00 1.00000E+00
 -1        65 1.00000E+00 1.00000E+00 1.50000E+00
 -1        66 1.00000E+00 1.00000E+00 2.00000E+00
 -1        67 1.00000E+00 1.00000E+00 2.50000E+00
 -1        68 1.00000E+00 1.00000E+00 3.00000E+00
 -1        69 1.00000E+00 1.00000E+00 3.50000E+00
 -1        70 1.00000E+00 1.00000E+00 4.00000E+00
 -1        71 1.00000E+00 1.00000E+00 4.50000E+00
 -1        72 1.00000E+00 1.00000E+00 5.00000E+00
 -1        73 1.00000E+00 1.00000E+00 5.50000E+00
 -1        74 1.00000E+00 1.00000E+00 6.00000E+00
 -1        78 0.00000E+00 1.00000E+00 5.00000E-01
 -1        79 0.00000E+00 1.00000E+00 1.00000E+00
 -1        80 0.00000E+00 1.00000E+00 1.50000E+00
 -1        81 0.00000E+00 1.00000E+00 2.00000E+00
 -1        82 0.00000E+00 1.00000E+00 2.50000E+00
 -1        83 0.00000E+00 1.00000E+00 3.00000E+00
 -1        84 0.00000E+00 1.00000E+00 3.50000E+00
 -1        85 0.00000E+00 1.00000E+00 4.00000E+00
 -1        86 0.00000E+00 1.00000E+00 4.50000E+00
 -1        87 0.00000E+00 1.00000E+00 5.00000E+00
 -1        88 0.00000E+00 1.00000E+00 5.50000E+00
 -1        89 0.00000E+00 1.00000E+00 6.00000E+00
 -1        93 5.00000E-01 2.50000E-01 0.00000E+00
 -1        94 2.50000E-01 5.00000E-01 0.00000E+00
 -1        95 5.00000E-01 5.00000E-01 0.00000E+00
 -1        96 7.50000E-01 5.00000E-01 0.00000E+00
 -1        97 5.00000E-01 7.50000E-01 0.00000E+00
 -1       103 5.00000E-01 0.00000E+00 5.00000E-01
 -1       104 2.50000E-01 0.00000E+00 1.00000E+00
 -1       105 5.00000E-01 0.00000E+00 1.00000E+00
 -1       106 7.50000E-01 0.00000E+00 1.00000E+00
 -1       107 5.00000E-01 0.00000E+00 1.50000E+00
 -1       108 2.50000E-01 0.00000E+00 2.00000E+00
 -1       109 5.00000E-01 0.00000E+00 2.00000E+00
 -1       110 7.50000E-01 0.00000E+00 2.00000E+00
 -1       111 5.00000E-01 0.00000E+00 2.50000E+00
 -1       112 2.50000E-01 0.00000E+00 3.00000E+00
 -1       113 5.00000E-01 0.00000E+00 3.00000E+00
 -1       114 7.50000E-01 0.00000E+00 3.00000E+00
 -1       115 5.00000E-01 0.00000E+00 3.50000E+00
 -1       116 2.50000E-01 0.00000E+00 4.00000E+00
 -1       117 5.00000E-01 0.00000E+00 4.00000E+00
 -1       118 7.50000E-01 0.00000E+00 4.00000E+00
 -1       119 5.00000E-01 0.00000E+00 4.50000E+00
 -1       120 2.50000E-01 0.00000E+00 5.00000E+00
 -1       121 5.00000E-01 0.00000E+00 5.00000E+00
 -1       122 7.50000E-01 0.00000E+00 5.00000E+00
 -1       123 5.00000E-01 0.00000E+00 5.50000E+00
 -1       124 2.50000E-01 0.00000E+00 6.00000E+00
 -1       125 5.00000E-01 0.00000E+00 6.00000E+00
 -1       126 7.50000E-01 0.00000E+00 6.00000E+00
 -1       132 1.00000E+00 5.00000E-01 5.00000E-01
 -1       133 1.00000E+00 2.50000E-01 1.00000E+00
 -1       134 1.00000E+00 5.00000E-01 1.00000E+00
 -1       135 1.00000E+00 7.50000E-01 1.00000E+00
 -1       136 1.00000E+00 5.00000E-01 1.50000E+00
 -1       137 1.00000E+00 2.50000E-01 2.00000E+00
 -1       138 1.00000E+00 5.00000E-01 2.00000E+00
 -1       139 1.00000E+00 7.50000E-01 2.00000E+00
 -1       140 1.00000E+00 5.00000E-01 2.50000E+00
 -1       141 1.00000E+00 2.50000E-01 3.00000E+00
 -1       142 1.00000E+00 5.00000E-01 3.00000E+00
 -1       143 1.00000E+00 7.50000E-01 3.00000E+00
 -1       144 1.00000E+00 5.00000E-01 3.50000E+00
 -1       145 1.00000E+00 2.50000E-01 4.00000E+00
 -1       146 1.00000E+00 5.00000E-01 4.00000E+00
 -1       147 1.00000E+00 7.50000E-01 4.00000E+00
 -1       148 1.00000E+00 5.00000E-01 4.50000E+00
 -1       149 1.00000E+00 2.50000E-01 5.00000E+00
 -1       150 1.00000E+00 5.00000E-01 5.00000E+00
 -1       151 1.00000E+00 7.50000E-01 5.00000E+00
 -1       152 1.00000E+00 5.00000E-01 5.50000E+00
 -1       153 1.00000E+00 2.50000E-01 6.00000E+00
 -1       154 1.00000E+00 5.00000E-01 6.00000E+00
 -1       155 1.00000E+00 7.50000E-01 6.00000E+00
 -1       161 5.00000E-01 1.00000E+00 5.00000E-01
 -1       162 7.50000E-01 1.00000E+00 1.00000E+00
 -1       163 5.00000E-01 1.00000E+00 1.00000E+00
 -1       164 2.50000E-01 1.00000E+00 1.00000E+00
 -1       165 5.00000E-01 1.00000E+00 1.50000E+00
 -1       166 7.50000E-01 1.00000E+00 2.00000E+00
 -1       167 5.00000E-01 1.00000E+00 2.00000E+00
 -1       168 2.50000E-01 1.00000E+00 2.00000E+00
 -1       169 5.00000E-01 1.00000E+00 2.50000E+00
 -1       170 7.50000E-01 1.00000E+00 3.00000E+00
 -1       171 5.00000E-01 1.00000E+00 3.00000E+00
 -1       172 2.50000E-01 1.00000E+00 3.00000E+00
 -1       173 5.00000E-01 1.00000E+00 3.50000E+00
 -1       174 7.50000E-01 1.00000E+00 4.00000E+00
 -1       175 5.00000E-01 1.00000E+00 4.00000E+00
 -1       176 2.50000E-01 1.00000E+00 4.00000E+00
 -1       177 5.00000E-01 1.00000E+00 4.50000E+00
 -1       178 7.50000E-01 1.00000E+00 5.00000E+00
 -1       179 5.00000E-01 1.00000E+00 5.00000E+00
 -1       180 2.50000E-01 1.00000E+00 5.00000E+00
 -1       181 5.00000E-01 1.00000E+00 5.50000E+00
 -1       182 7.50000E-01 1.00000E+00 6.00000E+00
 -1       183 5.00000E-01 1.00000E+00 6.00000E+00
 -1       184 2.50000E-01 1.00000E+00 6.00000E+00
 -1       190 0.00000E+00 5.00000E-01 5.00000E-01
 -1       191 0.00000E+00 7.50000E-01 1.00000E+00
 -1       192 0.00000E+00 5.00000E-01 1.00000E+00
 -1       193 0.00000E+00 2.50000E-01 1.00000E+00
 -1       194 0.00000E+00 5.00000E-01 1.50000E+00
 -1       195 0.00000E+00 7.50000E-01 2.00000E+00
 -1       196 0.00000E+00 5.00000E-01 2.00000E+00
 -1       197 0.00000E+00 2.50000E-01 2.00000E+00
 -1       198 0.00000E+00 5.00000E-01 2.50000E+00
 -1       199 0.00000E+00 7.50000E-01 3.00000E+00
 -1       200 0.00000E+00 5.00000E-01 3.00000E+00
 -1       201 0.00000E+00 2.50000E-01 3.00000E+00
 -1       202 0.00000E+00 5.00000E-01 3.50000E+00
 -1       203 0.00000E+00 7.50000E-01 4.00000E+00
 -1       204 0.00000E+00 5.00000E-01 4.00000E+00
 -1       205 0.00000E+00 2.50000E-01 4.00000E+00
 -1       206 0.00000E+00 5.00000E-01 4.50000E+00
 -1       207 0.00000E+00 7.50000E-01 5.00000E+00
 -1       208 0.00000E+00 5.00000E-01 5.00000E+00
 -1       209 0.00000E+00 2.50000E-01 5.00000E+00
 -1       210 0.00000E+00 5.00000E-01 5.50000E+00
 -1       211 0.00000E+00 7.50000E-01 6.00000E+00
 -1       212 0.00000E+00 5.00000E-01 6.00000E+00
 -1       213 0.00000E+00 2.50000E-01 6.00000E+00
 -1       219 5.00000E-01 5.00000E-01 5.00000E-01
 -1       220 5.00000E-01 2.50000E-01 1.00000E+00
 -1       221 2.50000E-01 5.00000E-01 1.00000E+00
 -1       222 5.00000E-01 5.00000E-01 1.00000E+00
 -1       223 7.50000E-01 5.00000E-01 1.00000E+00
 -1       224 5.00000E-01 7.50000E-01 1.00000E+00
 -1       225 5.00000E-01 5.00000E-01 1.50000E+00
 -1       226 5.00000E-01 2.50000E-01 2.00000E+00
 -1       227 2.50000E-01 5.00000E-01 2.00000E+00
 -1       228 5.00000E-01 5.00000E-01 2.00000E+00
 -1       229 7.50000E-01 5.00000E-01 2.00000E+00
 -1       230 5.00000E-01 7.50000E-01 2.00000E+00
 -1       231 5.00000E-01 5.00000E-01 2.50000E+00
 -1       232 5.00000E-01 2.50000E-01 3.00000E+00
 -1       233 2.50000E-01 5.00000E-01 3.00000E+00
 -1       234 5.00000E-01 5.00000E-01 3.00000E+00
 -1       235 7.50000E-01 5.00000E-01 3.00000E+00
 -1       236 5.00000E-01 7.50000E-01 3.00000E+00
 -1       237 5.00000E-01 5.00000E-01 3.50000E+00
 -1       238 5.00000E-01 2.50000E-01 4.00000E+00
 -1       239 2.50000E-01 5.00000E-01 4.00000E+00
 -1       240 5.00000E-01 5.00000E-01 4.00000E+00
 -1       241 7.50000E-01 5.00000E-01 4.00000E+00
 -1       242 5.00000E-01 7.50000E-01 4.00000E+00
 -1       243 5.00000E-01 5.00000E-01 4.50000E+00
 -1       244 5.00000E-01 2.50000E-01 5.00000E+00
 -1       245 2.50000E-01 5.00000E-01 5.00000E+00
 -1       246 5.00000E-01 5.00000E-01 5.00000E+00
 -1       247 7.50000E-01 5.00000E-01 5.00000E+00
 -1       248 5.00000E-01 7.50000E-01 5.00000E+00
 -1       249 5.00000E-01 5.00000E-01 5.50000E+00
 -1       250 5.00000E-01 2.50000E-01 6.00000E+00
 -1       251 2.50000E-01 5.00000E-01 6.00000E+00
 -1       252 5.00000E-01 5.00000E-01 6.00000E+00
 -1       253 7.50000E-01 5.00000E-01 6.00000E+00
 -1       254 5.00000E-01 7.50000E-01 6.00000E+00
 -3
    3C                            24                                     1
 -1         1    4    0    1
 -2         1        10        95        19        61       105       222       192         9        93
 -2        94        20        62       103       219       190       104       220       221       193
 -1         2    4    0    1
 -2        10         2        13        95       105        34       134       222        11        12
 -2        96        93       103        33       132       219       106       133       223       220
 -1         3    4    0    1
 -2        19        95        16         4       192       222       163        79        94        97
 -2        17        18       190       219       161        78       221       224       164       191
 -1         4    4    0    1
 -2        95        13         3        16       222       134        64       163        96        14
 -2        15        97       219       132        63       161       223       135       162       224
 -1         5    4    0    1
 -2        61       105       222       192        59       109       228       196       104       220
 -2       221       193        60       107       225       194       108       226       227       197
 -1         6    4    0    1
 -2       105        34       134       222       109        36       138       228       106       133
 -2       223       220       107        35       136       225       110       137       229       226
 -1         7    4    0    1
 -2       192       222       163        79       196       228       167        81       221       224
 -2       164       191       194       225       165        80       227       230       168       195
 -1         8    4    0    1
 -2       222       134        64       163       228       138        66       167       223       135
 -2       162       224       225       136        65       165       229       139       166       230
 -1         9    4    0    1
 -2        59       109       228       196        57       113       234       200       108       226
 -2       227       197        58       111       231       198       112       232       233       201
 -1        10    4    0    1
 -2       109        36       138       228       113        38       142       234       110       137
 -2       229       226       111        37       140       231       114       141       235       232
 -1        11    4    0    1
 -2       196       228       167        81       200       234       171        83       227       230
 -2       168       195       198       231       169        82       233       236       172       199
 -1        12    4    0    1
 -2       228       138        66       167       234       142        68       171       229       139
 -2       166       230       231       140        67       169       235       143       170       236
 -1        13    4    0    1
 -2        57       113       234       200        55       117       240       204       112       232
 -2       233       201        56       115       237       202       116       238       239       205
 -1        14    4    0    1
 -2       113        38       142       234       117        40       146       240       114       141
 -2       235       232       115        39       144       237       118       145       241       238
 -1        15    4    0    1
 -2       200       234       171        83       204       240       175        85       233       236
 -2       172       199       202       237       173        84       239       242       176       203
 -1        16    4    0    1
 -2       234       142        68       171       240       146        70       175       235       143
 -2       170       236       237       144        69       173       241       147       174       242
 -1        17    4    0    1
 -2        55       117       240       204        53       121       246       208       116       238
 -2       239       205        54       119       243       206       120       244       245       209
 -1        18    4    0    1
 -2       117        40       146       240       121        42       150       246       118       145
 -2       241       238       119        41       148       243       122       149       247       244
 -1        19    4    0    1
 -2       204       240       175        85       208       246       179        87       239       242
 -2       176       203       206       243       177        86       245       248       180       207
 -1        20    4    0    1
 -2       240       146        70       175       246       150        72       179       241       147
 -2       174       242       243       148        71       177       247       151       178       248
 -1        21    4    0    1
 -2        53       121       246       208        51       125       252       212       120       244
 -2       245       209        52       123       249       210       124       250       251       213
 -1        22    4    0    1
 -2       121        42       150       246       125        44       154       252       122       149
 -2       247       244       123        43       152       249       126       153       253       250
 -1        23    4    0    1
 -2       208       246       179        87       212       252       183        89       245       248
 -2       180       207       210       249       181        88       251       254       184       211
 -1        24    4    0    1
 -2       246       150        72       179       252       154        74       183       247       151
 -2       178       248       249       152        73       181       253       155       182       254
 -3
    1PSTEP                         1           1           1          
  100CL  101 1.00000E-02         201                     1    1           1
 -4  DISP        4    1
 -5  D1          1    2    1    0
 -5  D2          1    2    2    0
 -5  D3          1    2    3    0
 -5  ALL         1    2    0    0    1ALL
 -1         1 0.00000E+00 0.00000E+00 0.00000E+00
 -1         2 0.00000E+00 0.00000E+00 0.00000E+00
 -1         3 0.00000E+00 0.00000E+00 0.00000E+00
 -1         4 0.00000E+00 0.00000E+00 0.00000E+00
 -1         9 0.00000E+00 0.00000E+00 0.00000E+00
 -1        10 0.00000E+00 0.00000E+00 0.00000E+00
 -1        11 0.00000E+00 0.00000E+00 0.00000E+00
 -1        12 0.00000E+00 0.00000E+00 0.00000E+00
 -1        13 0.00000E+00 0.00000E+00 0.00000E+00
 -1        14 0.00000E+00 0.00000E+00 0.00000E+00
 -1        15 0.00000E+00 0.00000E+00 0.00000E+00
 -1        16 0.00000E+00 0.00000E+00 0.00000E+00
 -1        17 0.00000E+00 0.00000E+00 0.00000E+00
 -1        18 0.00000E+00 0.00000E+00 0.00000E+00
 -1        19 0.00000E+00 0.00000E+00 0.00000E+00
 -1        20 0.00000E+00 0.00000E+00 0.00000E+00
 -1        33 3.97302E-05-9.81001E-05-1.27814E-04
 -1        34 1.92727E-05-3.03406E-04-2.33103E-04
 -1        35 1.58597E-05-6.10562E-04-3.01366E-04
 -1        36 5.52298E-06-9.60052E-04-3.35532E-04
 -1        37-5.02106E-06-1.32852E-03-3.38043E-04
 -1        38-1.61827E-05-1.69514E-03-3.12603E-04
 -1        39-2.59116E-05-1.99654E-03-2.31350E-04
 -1        40-1.88997E-05-2.21344E-03-1.17041E-04
 -1        41-4.10196E-05-2.25229E-03-2.77250E-05
 -1        42-5.23046E-05-2.32406E-03-2.53371E-05
 -1        43 4.62640E-05-2.11632E-03 9.08613E-05
 -1        44 1.54576E-04-2.02107E-03 2.88807E-04
 -1        51-1.54576E-04-2.02107E-03 2.88807E-04
 -1        52-4.62636E-05-2.11632E-03 9.08612E-05
 -1        53 5.23049E-05-2.32406E-03-2.53371E-05
 -1        54 4.10198E-05-2.25229E-03-2.77250E-05
 -1        55 1.89000E-05-2.21344E-03-1.17040E-04
 -1        56 2.59118E-05-1.99654E-03-2.31350E-04
 -1        57 1.61829E-05-1.69514E-03-3.12603E-04
 -1        58 5.02121E-06-1.32852E-03-3.38043E-04
 -1        59-5.52287E-06-9.60052E-04-3.35531E-04
 -1        60-1.58596E-05-6.10562E-04-3.01366E-04
 -1        61-1.92727E-05-3.03406E-04-2.33103E-04
 -1        62-3.97302E-05-9.81001E-05-1.27814E-04
 -1        63-3.96191E-05-9.79355E-05 1.27488E-04
 -1        64-1.92576E-05-3.03353E-04 2.32404E-04
 -1        65-1.56337E-05-6.10519E-04 3.00385E-04
 -1        66-5.49618E-06-9.60665E-04 3.34224E-04
 -1        67 4.98938E-06-1.32758E-03 3.36433E-04
 -1        68 1.55464E-05-1.69519E-03 3.10217E-04
 -1        69 2.75087E-05-1.99759E-03 2.28818E-04
 -1        70 2.12106E-05-2.22212E-03 1.14633E-04
 -1        71 3.59570E-05-2.24049E-03 2.47985E-05
 -1        72 3.60958E-05-2.29890E-03 1.88255E-05
 -1        73-1.97771E-05-2.15674E-03-9.86723E-05
 -1        74-1.27116E-04-2.11223E-03-2.93207E-04
 -1        78 3.96191E-05-9.79355E-05 1.27488E-04
 -1        79 1.92576E-05-3.03353E-04 2.32404E-04
 -1        80 1.56338E-05-6.10519E-04 3.00385E-04
 -1        81 5.49629E-06-9.60665E-04 3.34224E-04
 -1        82-4.98922E-06-1.32758E-03 3.36433E-04
 -1        83-1.55462E-05-1.69519E-03 3.10217E-04
 -1        84-2.75085E-05-1.99759E-03 2.28818E-04
 -1        85-2.12104E-05-2.22212E-03 1.14633E-04
 -1        86-3.59567E-05-2.24049E-03 2.47985E-05
 -1        87-3.60957E-05-2.29890E-03 1.88253E-05
 -1        88 1.97776E-05-2.15674E-03-9.86723E-05
 -1        89 1.27117E-04-2.11223E-03-2.93207E-04
 -1        93 0.00000E+00 0.00000E+00 0.00000E+00
 -1        94 0.00000E+00 0.00000E+00 0.00000E+00
 -1        95 0.00000E+00 0.00000E+00 0.00000E+00
 -1        96 0.00000E+00 0.00000E+00 0.00000E+00
 -1        97 0.00000E+00 0.00000E+00 0.00000E+00
 -1       103 4.05393E-12-1.14625E-04-1.25388E-04
 -1       104-9.59640E-06-3.14882E-04-2.37099E-04
 -1       105 1.69834E-11-3.16431E-04-2.38669E-04
 -1       106 9.59643E-06-3.14882E-04-2.37099E-04
 -1       107 3.32849E-11-6.17432E-04-3.03095E-04
 -1       108-2.34349E-06-9.61490E-04-3.37728E-04
 -1       109 5.48748E-11-9.65646E-04-3.38085E-04
 -1       110 2.34359E-06-9.61490E-04-3.37728E-04
 -1       111 7.51656E-11-1.32400E-03-3.39116E-04
 -1       112 6.49905E-06-1.69730E-03-3.17133E-04
 -1       113 1.00216E-10-1.69049E-03-3.17553E-04
 -1       114-6.49886E-06-1.69730E-03-3.17133E-04
 -1       115 1.14957E-10-1.98345E-03-2.36217E-04
 -1       116 1.55012E-05-2.19109E-03-1.14293E-04
 -1       117 1.36412E-10-2.22421E-03-1.12181E-04
 -1       118-1.55010E-05-2.19109E-03-1.14293E-04
 -1       119 1.30656E-10-2.21804E-03-1.24588E-05
 -1       120 3.32789E-06-2.38202E-03-3.22896E-05
 -1       121 1.68967E-10-2.29053E-03-4.53939E-05
 -1       122-3.32762E-06-2.38202E-03-3.22895E-05
 -1       123 1.27713E-10-2.17454E-03 3.52464E-05
 -1       124 7.29507E-06-1.83859E-03 2.72759E-04
 -1       125 2.01565E-10-2.20090E-03 2.86028E-04
 -1       126-7.29465E-06-1.83859E-03 2.72759E-04
 -1       132 6.78687E-08-7.47309E-05-1.51633E-07
 -1       133 9.96652E-06-2.96099E-04-1.10028E-04
 -1       134 8.33898E-08-2.99178E-04-2.72846E-07
 -1       135-9.89548E-06-2.96108E-04 1.09379E-04
 -1       136-1.43487E-08-6.00176E-04-5.30591E-07
 -1       137 2.00798E-06-9.60603E-04-1.64393E-04
 -1       138 5.31318E-08-9.58509E-04-7.00827E-07
 -1       139-1.90284E-06-9.60770E-04 1.63118E-04
 -1       140 1.57975E-07-1.33304E-03-8.70430E-07
 -1       141-4.95889E-06-1.68696E-03-1.45849E-04
 -1       142 5.04125E-07-1.68756E-03-4.79726E-07
 -1       143 5.05528E-06-1.68751E-03 1.43930E-04
 -1       144-8.27914E-07-2.02074E-03-1.20769E-06
 -1       145-2.19230E-05-2.24126E-03-6.68169E-05
 -1       146-1.17237E-06-2.21194E-03-2.37577E-06
 -1       147 2.16488E-05-2.24369E-03 6.38513E-05
 -1       148 2.52529E-06-2.26706E-03-2.26051E-06
 -1       149 2.50633E-05-2.15269E-03 1.98918E-06
 -1       150 7.74870E-06-2.15696E-03-1.54929E-07
 -1       151-2.52011E-05-2.14563E-03-6.46250E-06
 -1       152-1.17972E-05-2.31034E-03 1.21451E-06
 -1       153-1.25523E-04-2.36142E-03 1.27492E-04
 -1       154-1.04457E-05-2.02252E-03-1.97075E-06
 -1       155 1.24759E-04-2.38828E-03-1.31955E-04
 -1       161 3.89303E-12-1.14512E-04 1.25033E-04
 -1       162-9.57407E-06-3.14820E-04 2.36458E-04
 -1       163 1.85342E-11-3.16199E-04 2.37982E-04
 -1       164 9.57410E-06-3.14820E-04 2.36458E-04
 -1       165 3.41593E-11-6.17434E-04 3.02140E-04
 -1       166-2.39520E-06-9.61240E-04 3.36388E-04
 -1       167 5.98057E-11-9.65256E-04 3.37063E-04
 -1       168 2.39531E-06-9.61240E-04 3.36388E-04
 -1       169 7.63221E-11-1.32410E-03 3.37144E-04
 -1       170 6.46352E-06-1.69728E-03 3.15232E-04
 -1       171 1.10147E-10-1.68752E-03 3.15061E-04
 -1       172-6.46332E-06-1.69728E-03 3.15232E-04
 -1       173 1.15405E-10-1.98536E-03 2.33901E-04
 -1       174 1.55383E-05-2.18554E-03 1.11144E-04
 -1       175 1.58311E-10-2.21647E-03 1.11213E-04
 -1       176-1.55380E-05-2.18554E-03 1.11144E-04
 -1       177 1.25483E-10-2.21411E-03 8.22130E-06
 -1       178-9.64368E-07-2.39126E-03 2.83724E-05
 -1       179 2.14772E-10-2.27300E-03 3.86537E-05
 -1       180 9.64660E-07-2.39126E-03 2.83723E-05
 -1       181 1.15883E-10-2.19294E-03-4.37118E-05
 -1       182 7.51598E-06-1.80007E-03-2.76701E-04
 -1       183 4.11419E-10-2.27322E-03-2.88736E-04
 -1       184-7.51539E-06-1.80007E-03-2.76701E-04
 -1       190-6.78561E-08-7.47309E-05-1.51619E-07
 -1       191 9.89551E-06-2.96108E-04 1.09379E-04
 -1       192-8.33524E-08-2.99178E-04-2.72818E-07
 -1       193-9.96648E-06-2.96099E-04-1.10028E-04
 -1       194 1.44188E-08-6.00176E-04-5.30556E-07
 -1       195 1.90295E-06-9.60770E-04 1.63118E-04
 -1       196-5.30141E-08-9.58509E-04-7.00785E-07
 -1       197-2.00787E-06-9.60603E-04-1.64393E-04
 -1       198-1.57825E-07-1.33304E-03-8.70391E-07
 -1       199-5.05509E-06-1.68751E-03 1.43930E-04
 -1       200-5.03923E-07-1.68756E-03-4.79688E-07
 -1       201 4.95909E-06-1.68696E-03-1.45849E-04
 -1       202 8.28147E-07-2.02074E-03-1.20765E-06
 -1       203-2.16486E-05-2.24369E-03 6.38513E-05
 -1       204 1.17268E-06-2.21194E-03-2.37574E-06
 -1       205 2.19232E-05-2.24126E-03-6.68168E-05
 -1       206-2.52506E-06-2.26706E-03-2.26052E-06
 -1       207 2.52013E-05-2.14563E-03-6.46251E-06
 -1       208-7.74846E-06-2.15696E-03-1.54917E-07
 -1       209-2.50630E-05-2.15269E-03 1.98919E-06
 -1       210 1.17976E-05-2.31034E-03 1.21452E-06
 -1       211-1.24758E-04-2.38828E-03-1.31955E-04
 -1       212 1.04463E-05-2.02252E-03-1.97064E-06
 -1       213 1.25523E-04-2.36142E-03 1.27491E-04
 -1       219 5.33886E-12-9.09511E-05-1.35917E-07
 -1       220 1.71933E-11-3.07984E-04-1.13541E-04
 -1       221-3.98267E-08-3.09925E-04-3.45618E-07
 -1       222 1.70383E-11-3.10330E-04-3.61341E-07
 -1       223 3.98619E-08-3.09925E-04-3.45631E-07
 -1       224 1.79681E-11-3.07856E-04 1.12880E-04
 -1       225 3.53580E-11-6.07841E-04-4.87041E-07
 -1       226 5.44581E-11-9.63887E-04-1.66964E-04
 -1       227-3.21715E-08-9.57123E-04-6.52013E-07
 -1       228 5.32342E-11-9.59367E-04-8.01884E-07
 -1       229 3.22831E-08-9.57123E-04-6.52034E-07
 -1       230 5.68830E-11-9.63721E-04 1.65518E-04
 -1       231 7.97636E-11-1.33259E-03-7.11488E-07
 -1       232 9.60913E-11-1.68036E-03-1.49321E-04
 -1       233-2.19485E-07-1.68942E-03-1.20910E-06
 -1       234 9.44047E-11-1.67895E-03-1.33105E-06
 -1       235 2.19683E-07-1.68942E-03-1.20912E-06
 -1       236 1.01198E-10-1.67876E-03 1.47212E-04
 -1       237 1.19134E-10-2.00578E-03-8.86582E-07
 -1       238 1.29929E-10-2.23438E-03-6.61649E-05
 -1       239 6.00341E-07-2.16479E-03-1.36148E-06
 -1       240 1.16195E-10-2.18797E-03-1.89531E-06
 -1       241-6.00079E-07-2.16479E-03-1.36150E-06
 -1       242 1.40057E-10-2.23065E-03 6.27595E-05
 -1       243 1.57527E-10-2.26938E-03-2.02799E-06
 -1       244 1.26273E-10-2.14028E-03-3.53020E-06
 -1       245-3.38232E-06-2.27927E-03-2.50092E-06
 -1       246 1.08930E-10-2.16717E-03-1.88256E-06
 -1       247 3.38258E-06-2.27927E-03-2.50090E-06
 -1       248 1.54016E-10-2.13299E-03 6.43777E-07
 -1       249 1.25999E-10-2.26023E-03-1.29799E-06
 -1       250 8.79834E-11-2.39721E-03 1.25149E-04
 -1       251 3.86511E-06-1.51609E-03-9.87347E-07
 -1       252-9.89875E-11-1.92012E-03-1.51909E-06
 -1       253-3.86507E-06-1.51609E-03-9.87528E-07
 -1       254 1.74071E-10-2.42581E-03-1.32768E-04
 -3
    1PSTEP                         2           2           1          
  100CL  102 2.00000E-02         201                     1    2           1
 -4  DISP        4    1
 -5  D1          1    2    1    0
 -5  D2          1    2    2    0
 -5  D3          1    2    3    0
 -5  ALL         1    2    0    0    1ALL
 -1         1 0.00000E+00 0.00000E+00 0.00000E+00
 -1         2 0.00000E+00 0.00000E+00 0.00000E+00
 -1         3 0.00000E+00 0.00000E+00 0.00000E+00
 -1         4 0.00000E+00 0.00000E+00 0.00000E+00
 -1         9 0.00000E+00 0.00000E+00 0.00000E+00
 -1        10 0.00000E+00 0.00000E+00 0.00000E+00
 -1        11 0.00000E+00 0.00000E+00 0.00000E+00
 -1        12 0.00000E+00 0.00000E+00 0.00000E+00
 -1        13 0.00000E+00 0.00000E+00 0.00000E+00
 -1        14 0.00000E+00 0.00000E+00 0.00000E+00
 -1        15 0.00000E+00 0.00000E+00 0.00000E+00
 -1        16 0.00000E+00 0.00000E+00 0.00000E+00
 -1        17 0.00000E+00 0.00000E+00 0.00000E+00
 -1        18 0.00000E+00 0.00000E+00 0.00000E+00
 -1        19 0.00000E+00 0.00000E+00 0.00000E+00
 -1        20 0.00000E+00 0.00000E+00 0.00000E+00
 -1        33-3.19983E-05 7.91734E-05 1.03010E-04
 -1        34-1.54894E-05 2.44819E-04 1.87744E-04
 -1        35-1.27501E-05 4.92587E-04 2.42735E-04
 -1        36-4.51060E-06 7.74370E-04 2.70070E-04
 -1        37 4.28619E-06 1.07185E-03 2.71859E-04
 -1        38 1.34627E-05 1.36761E-03 2.50320E-04
 -1        39 2.07862E-05 1.60900E-03 1.85228E-04
 -1        40 1.41082E-05 1.78364E-03 9.24590E-05
 -1        41 3.48482E-05 1.81714E-03 2.07396E-05
 -1        42 4.42325E-05 1.87104E-03 1.11645E-05
 -1        43-3.82404E-05 1.69862E-03-7.83633E-05
 -1        44-1.51117E-04 1.60919E-03-2.33934E-04
 -1        51 1.51116E-04 1.60919E-03-2.33934E-04
 -1        52 3.82396E-05 1.69862E-03-7.83635E-05
 -1        53-4.42327E-05 1.87104E-03 1.11650E-05
 -1        54-3.48485E-05 1.81714E-03 2.07396E-05
 -1        55-1.41084E-05 1.78364E-03 9.24589E-05
 -1        56-2.07864E-05 1.60900E-03 1.85228E-04
 -1        57-1.34628E-05 1.36761E-03 2.50320E-04
 -1        58-4.28631E-06 1.07185E-03 2.71859E-04
 -1        59 4.51052E-06 7.74370E-04 2.70070E-04
 -1        60 1.27500E-05 4.92587E-04 2.42735E-04
 -1        61 1.54894E-05 2.44819E-04 1.87744E-04
 -1        62 3.19983E-05 7.91734E-05 1.03010E-04
 -1        63 3.19925E-05 7.91647E-05-1.02992E-04
 -1        64 1.54887E-05 2.44817E-04-1.87708E-04
 -1        65 1.27380E-05 4.92585E-04-2.42683E-04
 -1        66 4.50876E-06 7.74402E-04-2.70001E-04
 -1        67-4.28396E-06 1.07180E-03-2.71774E-04
 -1        68-1.34276E-05 1.36761E-03-2.50195E-04
 -1        69-2.08724E-05 1.60906E-03-1.85094E-04
 -1        70-1.42356E-05 1.78410E-03-9.23316E-05
 -1        71-3.45743E-05 1.81651E-03-2.05849E-05
 -1        72-4.33532E-05 1.86970E-03-1.08235E-05
 -1        73 3.68158E-05 1.70077E-03 7.87730E-05
 -1        74 1.49607E-04 1.61402E-03 2.34166E-04
 -1        78-3.19925E-05 7.91647E-05-1.02992E-04