    1C
    1UUSER                                                              
    1UDATE              09.july.2018                                    
    1UTIME              11:08:39                                        
    1UHOST                                                              
    1UPGM               CalculiX                                        
    1UVERSION           Version 2.13                             
    1UCOMPILETIME       jue jun 14 00:40:39 CEST 2018                    
    1UDIR                                                               
    1UDBN                                                               
    1UMAT    1EL                                                        
    2C                            81                                     1
 -1         5 0.00000E+00 0.00000E+00 8.00000E+00
 -1         6 1.00000E+00 0.00000E+00 8.00000E+00
 -1         7 1.00000E+00 1.00000E+00 8.00000E+00
 -1         8 0.00000E+00 1.00000E+00 8.00000E+00
 -1        21 2.50000E-01 0.00000E+00 8.00000E+00
 -1        22 5.00000E-01 0.00000E+00 8.00000E+00
 -1        23 7.50000E-01 0.00000E+00 8.00000E+00
 -1        24 1.00000E+00 2.50000E-01 8.00000E+00
 -1        25 1.00000E+00 5.00000E-01 8.00000E+00
 -1        26 1.00000E+00 7.50000E-01 8.00000E+00
 -1        27 7.50000E-01 1.00000E+00 8.00000E+00
 -1        28 5.00000E-01 1.00000E+00 8.00000E+00
 -1        29 2.50000E-01 1.00000E+00 8.00000E+00
 -1        30 0.00000E+00 7.50000E-01 8.00000E+00
 -1        31 0.00000E+00 5.00000E-01 8.00000E+00
 -1        32 0.00000E+00 2.50000E-01 8.00000E+00
 -1        44 1.00000E+00 0.00000E+00 6.00000E+00
 -1        45 1.00000E+00 0.00000E+00 6.50000E+00
 -1        46 1.00000E+00 0.00000E+00 7.00000E+00
 -1        47 1.00000E+00 0.00000E+00 7.50000E+00
 -1        48 0.00000E+00 0.00000E+00 7.50000E+00
 -1        49 0.00000E+00 0.00000E+00 7.00000E+00
 -1        50 0.00000E+00 0.00000E+00 6.50000E+00
 -1        51 0.00000E+00 0.00000E+00 6.00000E+00
 -1        74 1.00000E+00 1.00000E+00 6.00000E+00
 -1        75 1.00000E+00 1.00000E+00 6.50000E+00
 -1        76 1.00000E+00 1.00000E+00 7.00000E+00
 -1        77 1.00000E+00 1.00000E+00 7.50000E+00
 -1        89 0.00000E+00 1.00000E+00 6.00000E+00
 -1        90 0.00000E+00 1.00000E+00 6.50000E+00
 -1        91 0.00000E+00 1.00000E+00 7.00000E+00
 -1        92 0.00000E+00 1.00000E+00 7.50000E+00
 -1        98 5.00000E-01 2.50000E-01 8.00000E+00
 -1        99 2.50000E-01 5.00000E-01 8.00000E+00
 -1       100 5.00000E-01 5.00000E-01 8.00000E+00
 -1       101 7.50000E-01 5.00000E-01 8.00000E+00
 -1       102 5.00000E-01 7.50000E-01 8.00000E+00
 -1       124 2.50000E-01 0.00000E+00 6.00000E+00
 -1       125 5.00000E-01 0.00000E+00 6.00000E+00
 -1       126 7.50000E-01 0.00000E+00 6.00000E+00
 -1       127 5.00000E-01 0.00000E+00 6.50000E+00
 -1       128 2.50000E-01 0.00000E+00 7.00000E+00
 -1       129 5.00000E-01 0.00000E+00 7.00000E+00
 -1       130 7.50000E-01 0.00000E+00 7.00000E+00
 -1       131 5.00000E-01 0.00000E+00 7.50000E+00
 -1       153 1.00000E+00 2.50000E-01 6.00000E+00
 -1       154 1.00000E+00 5.00000E-01 6.00000E+00
 -1       155 1.00000E+00 7.50000E-01 6.00000E+00
 -1       156 1.00000E+00 5.00000E-01 6.50000E+00
 -1       157 1.00000E+00 2.50000E-01 7.00000E+00
 -1       158 1.00000E+00 5.00000E-01 7.00000E+00
 -1       159 1.00000E+00 7.50000E-01 7.00000E+00
 -1       160 1.00000E+00 5.00000E-01 7.50000E+00
 -1       182 7.50000E-01 1.00000E+00 6.00000E+00
 -1       183 5.00000E-01 1.00000E+00 6.00000E+00
 -1       184 2.50000E-01 1.00000E+00 6.00000E+00
 -1       185 5.00000E-01 1.00000E+00 6.50000E+00
 -1       186 7.50000E-01 1.00000E+00 7.00000E+00
 -1       187 5.00000E-01 1.00000E+00 7.00000E+00
 -1       188 2.50000E-01 1.00000E+00 7.00000E+00
 -1       189 5.00000E-01 1.00000E+00 7.50000E+00
 -1       211 0.00000E+00 7.50000E-01 6.00000E+00
 -1       212 0.00000E+00 5.00000E-01 6.00000E+00
 -1       213 0.00000E+00 2.50000E-01 6.00000E+00
 -1       214 0.00000E+00 5.00000E-01 6.50000E+00
 -1       215 0.00000E+00 7.50000E-01 7.00000E+00
 -1       216 0.00000E+00 5.00000E-01 7.00000E+00
 -1       217 0.00000E+00 2.50000E-01 7.00000E+00
 -1       218 0.00000E+00 5.00000E-01 7.50000E+00
 -1       250 5.00000E-01 2.50000E-01 6.00000E+00
 -1       251 2.50000E-01 5.00000E-01 6.00000E+00
 -1       252 5.00000E-01 5.00000E-01 6.00000E+00
 -1       253 7.50000E-01 5.00000E-01 6.00000E+00
 -1       254 5.00000E-01 7.50000E-01 6.00000E+00
 -1       255 5.00000E-01 5.00000E-01 6.50000E+00
 -1       256 5.00000E-01 2.50000E-01 7.00000E+00
 -1       257 2.50000E-01 5.00000E-01 7.00000E+00
 -1       258 5.00000E-01 5.00000E-01 7.00000E+00
 -1       259 7.50000E-01 5.00000E-01 7.00000E+00
 -1       260 5.00000E-01 7.50000E-01 7.00000E+00
 -1       261 5.00000E-01 5.00000E-01 7.50000E+00
 -3
    3C                             8                                     1
 -1        25    4    0    1
 -2        51       125       252       212        49       129       258       216       124       250
 -2       251       213        50       127       255       214       128       256       257       217
 -1        26    4    0    1
 -2       125        44       154       252       129        46       158       258       126       153
 -2       253       250       127        45       156       255       130       157       259       256
 -1        27    4    0    1
 -2       212       252       183        89       216       258       187        91       251       254
 -2       184       211       214       255       185        90       257       260       188       215
 -1        28    4    0    1
 -2       252       154        74       183       258       158        76       187       253       155
 -2       182       254       255       156        75       185       259       159       186       260
 -1        29    4    0    1
 -2        49       129       258       216         5        22       100        31       128       256
 -2       257       217        48       131       261       218        21        98        99        32
 -1        30    4    0    1
 -2       129        46       158       258        22         6        25       100       130       157
 -2       259       256       131        47       160       261        23        24       101        98
 -1        31    4    0    1
 -2       216       258       187        91        31       100        28         8       257       260
 -2       188       215       218       261       189        92        99       102        29        30
 -1        32    4    0    1
 -2       258       158        76       187       100        25         7        28       259       159
 -2       186       260       261       160        77       189       101        26        27       102
 -3
    1PSTEP                         1           1           1          
  100CL  101 1.00000E-02          81                     1    1           1
 -4  DISP        4    1
 -5  D1          1    2    1    0
 -5  D2          1    2    2    0
 -5  D3          1    2    3    0
 -5  ALL         1    2    0    0    1ALL
 -1         5 0.00000E+00 0.00000E+00 0.00000E+00
 -1         6 0.00000E+00 0.00000E+00 0.00000E+00
 -1         7 0.00000E+00 0.00000E+00 0.00000E+00
 -1         8 0.00000E+00 0.00000E+00 0.00000E+00
 -1        21 0.00000E+00 0.00000E+00 0.00000E+00
 -1        22 0.00000E+00 0.00000E+00 0.00000E+00
 -1        23 0.00000E+00 0.00000E+00 0.00000E+00
 -1        24 0.00000E+00 0.00000E+00 0.00000E+00
 -1        25 0.00000E+00 0.00000E+00 0.00000E+00
 -1        26 0.00000E+00 0.00000E+00 0.00000E+00
 -1        27 0.00000E+00 0.00000E+00 0.00000E+00
 -1        28 0.00000E+00 0.00000E+00 0.00000E+00
 -1        29 0.00000E+00 0.00000E+00 0.00000E+00
 -1        30 0.00000E+00 0.00000E+00 0.00000E+00
 -1        31 0.00000E+00 0.00000E+00 0.00000E+00
 -1        32 0.00000E+00 0.00000E+00 0.00000E+00
 -1        44 1.54577E-04-2.02107E-03 2.88806E-04
 -1        45 4.25415E-05-1.55735E-03 4.71466E-04
 -1        46-4.82154E-05-1.13235E-03 5.44703E-04
 -1        47 6.91369E-05-4.53542E-04 3.50496E-04
 -1        48-6.91369E-05-4.53542E-04 3.50496E-04
 -1        49 4.82154E-05-1.13235E-03 5.44703E-04
 -1        50-4.25412E-05-1.55735E-03 4.71466E-04
 -1        51-1.54576E-04-2.02107E-03 2.88806E-04
 -1        74-1.27116E-04-2.11223E-03-2.93206E-04
 -1        75-1.76333E-05-1.59727E-03-4.71504E-04
 -1        76 3.27700E-05-1.11336E-03-5.44831E-04
 -1        77-7.68398E-05-4.39221E-04-3.51914E-04
 -1        89 1.27116E-04-2.11223E-03-2.93206E-04
 -1        90 1.76336E-05-1.59727E-03-4.71504E-04
 -1        91-3.27701E-05-1.11336E-03-5.44831E-04
 -1        92 7.68399E-05-4.39221E-04-3.51914E-04
 -1        98 0.00000E+00 0.00000E+00 0.00000E+00
 -1        99 0.00000E+00 0.00000E+00 0.00000E+00
 -1       100 0.00000E+00 0.00000E+00 0.00000E+00
 -1       101 0.00000E+00 0.00000E+00 0.00000E+00
 -1       102 0.00000E+00 0.00000E+00 0.00000E+00
 -1       124 7.29485E-06-1.83859E-03 2.72758E-04
 -1       125 2.39609E-10-2.20090E-03 2.86028E-04
 -1       126-7.29435E-06-1.83859E-03 2.72758E-04
 -1       127 6.04984E-11-1.61291E-03 5.24556E-04
 -1       128 3.07136E-06-1.19462E-03 5.77649E-04
 -1       129 7.52840E-11-1.10824E-03 5.86310E-04
 -1       130-3.07129E-06-1.19462E-03 5.77649E-04
 -1       131 1.00300E-13-4.65099E-04 3.43292E-04
 -1       153-1.25523E-04-2.36142E-03 1.27492E-04
 -1       154-1.04455E-05-2.02252E-03-1.97058E-06
 -1       155 1.24759E-04-2.38828E-03-1.31954E-04
 -1       156-1.11576E-05-1.74504E-03-6.24645E-06
 -1       157 2.44707E-05-9.78211E-04 2.32962E-04
 -1       158 8.08069E-06-1.00107E-03-2.82607E-06
 -1       159-2.17056E-05-9.74446E-04-2.34722E-04
 -1       160 3.71474E-06-3.86568E-04 4.59143E-07
 -1       182 7.51645E-06-1.80006E-03-2.76700E-04
 -1       183 4.41782E-10-2.27322E-03-2.88735E-04
 -1       184-7.51580E-06-1.80006E-03-2.76700E-04
 -1       185 3.71513E-11-1.63802E-03-5.21503E-04
 -1       186-9.33458E-07-1.21457E-03-5.80950E-04
 -1       187 1.11001E-10-1.11005E-03-5.88298E-04
 -1       188 9.33545E-07-1.21457E-03-5.80950E-04
 -1       189-5.45861E-12-4.63742E-04-3.44080E-04
 -1       211-1.24759E-04-2.38828E-03-1.31954E-04
 -1       212 1.04461E-05-2.02252E-03-1.97051E-06
 -1       213 1.25523E-04-2.36142E-03 1.27491E-04
 -1       214 1.11578E-05-1.74504E-03-6.24655E-06
 -1       215 2.17057E-05-9.74446E-04-2.34722E-04
 -1       216-8.08065E-06-1.00107E-03-2.82617E-06
 -1       217-2.44706E-05-9.78211E-04 2.32961E-04
 -1       218-3.71476E-06-3.86568E-04 4.59124E-07
 -1       250 1.26987E-10-2.39721E-03 1.25149E-04
 -1       251 3.86511E-06-1.51609E-03-9.87305E-07
 -1       252-5.84216E-11-1.92012E-03-1.51907E-06
 -1       253-3.86499E-06-1.51609E-03-9.87464E-07
 -1       254 2.10202E-10-2.42581E-03-1.32768E-04
 -1       255 1.01748E-10-1.69450E-03-3.02472E-06
 -1       256 2.79185E-11-9.76559E-04 2.55684E-04
 -1       257-4.07608E-06-1.12815E-03-1.13960E-06
 -1       258-1.17859E-12-1.02412E-03-1.38628E-06
 -1       259 4.07612E-06-1.12815E-03-1.13951E-06
 -1       260 5.04288E-11-9.78665E-04-2.57852E-04
 -1       261 2.44255E-11-4.34618E-04-1.74954E-07
 -3
    1PSTEP                         2           2           1          
  100CL  102 2.00000E-02          81                     1    2           1
 -4  DISP        4    1
 -5  D1          1    2    1    0
 -5  D2          1    2    2    0
 -5  D3          1    2    3    0
 -5  ALL         1    2    0    0    1ALL
 -1         5 0.00000E+00 0.00000E+00 0.00000E+00
 -1         6 0.00000E+00 0.00000E+00 0.00000E+00
 -1         7 0.00000E+00 0.00000E+00 0.00000E+00
 -1         8 0.00000E+00 0.00000E+00 0.00000E+00
 -1        21 0.00000E+00 0.00000E+00 0.00000E+00
 -1        22 0.00000E+00 0.00000E+00 0.00000E+00
 -1        23 0.00000E+00 0.00000E+00 0.00000E+00
 -1        24 0.00000E+00 0.00000E+00 0.00000E+00
 -1        25 0.00000E+00 0.00000E+00 0.00000E+00
 -1        26 0.00000E+00 0.00000E+00 0.00000E+00
 -1        27 0.00000E+00 0.00000E+00 0.00000E+00
 -1        28 0.00000E+00 0.00000E+00 0.00000E+00
 -1        29 0.00000E+00 0.00000E+00 0.00000E+00
 -1        30 0.00000E+00 0.00000E+00 0.00000E+00
 -1        31 0.00000E+00 0.00000E+00 0.00000E+00
 -1        32 0.00000E+00 0.00000E+00 0.00000E+00
 -1        44-1.51117E-04 1.60919E-03-2.33934E-04
 -1        45-3.52042E-05 1.24946E-03-3.77299E-04
 -1        46 4.15117E-05 9.13792E-04-4.32302E-04
 -1        47-5.40031E-05 3.69765E-04-2.84003E-04
 -1        48 5.40031E-05 3.69765E-04-2.84003E-04
 -1        49-4.15115E-05 9.13792E-04-4.32301E-04
 -1        50 3.52036E-05 1.24946E-03-3.77300E-04
 -1        51 1.51116E-04 1.60919E-03-2.33934E-04
 -1        74 1.49607E-04 1.61402E-03 2.34167E-04
 -1        75 3.38624E-05 1.25158E-03 3.77304E-04
 -1        76-4.06741E-05 9.12773E-04 4.32309E-04
 -1        77 5.44184E-05 3.69006E-04 2.84078E-04
 -1        89-1.49608E-04 1.61402E-03 2.34166E-04
 -1        90-3.38630E-05 1.25158E-03 3.77304E-04
 -1        91 4.06745E-05 9.12773E-04 4.32310E-04
 -1        92-5.44184E-05 3.69006E-04 2.84078E-04
 -1        98 0.00000E+00 0.00000E+00 0.00000E+00
 -1        99 0.00000E+00 0.00000E+00 0.00000E+00
 -1       100 0.00000E+00 0.00000E+00 0.00000E+00
 -1       101 0.00000E+00 0.00000E+00 0.00000E+00
 -1       102 0.00000E+00 0.00000E+00 0.00000E+00
 -1       124 4.65249E-06 1.47958E-03-2.20459E-04
 -1       125-8.34522E-10 1.76866E-03-2.31330E-04
 -1       126-4.65372E-06 1.47958E-03-2.20460E-04
 -1       127 4.98147E-11 1.30158E-03-4.17349E-04
 -1       128-3.42545E-06 9.59171E-04-4.63529E-04
 -1       129-1.82555E-10 8.89438E-04-4.72297E-04
 -1       130 3.42532E-06 9.59171E-04-4.63529E-04
 -1       131 4.32429E-11 3.75412E-04-2.76035E-04
 -1       153 1.24703E-04 1.91674E-03-1.03872E-04
 -1       154 5.27556E-07 1.69350E-03 1.04907E-07
 -1       155-1.24635E-04 1.91811E-03 1.04107E-04
 -1       156 5.82304E-07 1.40662E-03 3.31768E-07
 -1       157-2.49604E-05 7.92905E-04-1.86045E-04
 -1       158-4.23177E-07 8.09830E-04 1.49407E-07
 -1       159 2.48083E-05 7.92711E-04 1.86137E-04
 -1       160-1.93544E-07 3.08202E-04-2.36941E-08
 -1       182 4.67150E-06 1.47755E-03 2.20668E-04
 -1       183-7.43913E-10 1.77246E-03 2.31474E-04
 -1       184-4.67240E-06 1.47755E-03 2.20668E-04
 -1       185 9.92108E-11 1.30288E-03 4.17182E-04
 -1       186-3.21758E-06 9.60222E-04 4.63703E-04
 -1       187-2.02687E-10 8.89547E-04 4.72399E-04
 -1       188 3.21749E-06 9.60222E-04 4.63703E-04
 -1       189 5.55988E-11 3.75345E-04 2.76076E-04
 -1       211 1.24635E-04 1.91811E-03 1.04107E-04
 -1       212-5.27573E-07 1.69350E-03 1.03241E-07
 -1       213-1.24703E-04 1.91674E-03-1.03872E-04
 -1       214-5.82251E-07 1.40662E-03 3.31693E-07
 -1       215-2.48083E-05 7.92711E-04 1.86137E-04
 -1       216 4.23089E-07 8.09830E-04 1.49576E-07
 -1       217 2.49604E-05 7.92904E-04-1.86045E-04
 -1       218 1.93575E-07 3.08202E-04-2.37057E-08
 -1       250-8.72575E-11 1.90996E-03-1.03057E-04
 -1       251-1.71985E-07 1.20956E-03 5.11350E-08
 -1       252 8.07360E-10 1.54249E-03 8.03137E-08
 -1       253 1.72733E-07 1.20956E-03 5.23066E-08
 -1       254-1.23167E-10 1.91151E-03 1.03459E-04
 -1       255-7.63782E-11 1.37510E-03 1.58834E-07
 -1       256-1.10983E-11 7.83327E-04-2.07261E-04
 -1       257 2.08979E-07 9.13979E-04 6.01355E-08
 -1       258 1.27709E-10 8.12422E-04 7.30329E-08
 -1       259-2.08870E-07 9.13979E-04 5.99606E-08
 -1       260-3.57471E-12 7.83434E-04 2.07375E-04
 -1       261-6.11397E-11 3.48471E-04 8.94321E-09
 -3
    1PSTEP                         3           3           1          
  100CL  103 3.00000E-02          81                     1    3           1
 -4  DISP        4    1
 -5  D1          1    2    1    0
 -5  D2          1    2    2    0
 -5  D3          1    2    3    0
 -5  ALL         1    2    0    0    1ALL
 -1         5 0.00000E+00 0.00000E+00 0.00000E+00
 -1         6 0.00000E+00 0.00000E+00 0.00000E+00
 -1         7 0.00000E+00 0.00000E+00 0.00000E+00
 -1         8 0.00000E+00 0.00000E+00 0.00000E+00
 -1        21 0.00000E+00 0.00000E+00 0.00000E+00
 -1        22 0.00000E+00 0.00000E+00 0.00000E+00
 -1        23 0.00000E+00 0.00000E+00 0.00000E+00
 -1        24 0.00000E+00 0.00000E+00 0.00000E+00
 -1        25 0.00000E+00 0.00000E+00 0.00000E+00
 -1        26 0.00000E+00 0.00000E+00 0.00000E+00
 -1        27 0.00000E+00 0.00000E+00 0.00000E+00
 -1        28 0.00000E+00 0.00000E+00 0.00000E+00
 -1        29 0.00000E+00 0.00000E+00 0.00000E+00
 -1        30 0.00000E+00 0.00000E+00 0.00000E+00
 -1        31 0.00000E+00 0.00000E+00 0.00000E+00
 -1        32 0.00000E+00 0.00000E+00 0.00000E+00
 -1        44 1.21038E-04-1.27394E-03 1.85400E-04
 -1        45 2.79077E-05-9.89638E-04 2.98789E-04
 -1        46-3.29986E-05-7.24015E-04 3.42156E-04
 -1        47 4.27083E-05-2.93166E-04 2.25086E-04
 -1        48-4.27057E-05-2.93164E-04 2.25084E-04
 -1        49 3.30042E-05-7.24014E-04 3.42154E-04
 -1        50-2.78999E-05-9.89640E-04 2.98782E-04
 -1        51-1.21017E-04-1.27393E-03 1.85397E-04
 -1        74-1.20973E-04-1.27415E-03-1.85409E-04
 -1        75-2.78476E-05-9.89727E-04-2.98783E-04
 -1        76 3.29748E-05-7.23977E-04-3.42151E-04
 -1        77-4.27227E-05-2.93132E-04-2.25088E-04
 -1        89 1.20988E-04-1.27415E-03-1.85413E-04
 -1        90 2.78598E-05-9.89730E-04-2.98790E-04
 -1        91-3.29696E-05-7.23977E-04-3.42160E-04
 -1        92 4.27230E-05-2.93131E-04-2.25090E-04
 -1        98 0.00000E+00 0.00000E+00 0.00000E+00
 -1        99 0.00000E+00 0.00000E+00 0.00000E+00
 -1       100 0.00000E+00 0.00000E+00 0.00000E+00
 -1       101 0.00000E+00 0.00000E+00 0.00000E+00
 -1       102 0.00000E+00 0.00000E+00 0.00000E+00
 -1       124-4.22336E-06-1.17211E-03 1.74694E-04
 -1       125 2.08302E-08-1.40099E-03 1.83317E-04
 -1       126 4.25900E-06-1.17210E-03 1.74696E-04
 -1       127 5.32605E-09-1.03127E-03 3.30368E-04
 -1       128 2.76377E-06-7.59735E-04 3.67135E-04
 -1       129 2.32368E-09-7.04488E-04 3.74172E-04
 -1       130-2.75992E-06-7.59737E-04 3.67136E-04
 -1       131 1.96860E-10-2.97459E-04 2.18660E-04
 -1       153-9.99849E-05-1.51927E-03 8.23538E-05
 -1       154-2.44937E-08-1.34501E-03-3.96201E-09
 -1       155 1.00005E-04-1.51935E-03-8.23617E-05
 -1       156-2.31087E-08-1.11444E-03-1.27692E-08
 -1       157 2.00444E-05-6.28424E-04 1.47311E-04
 -1       158 2.31139E-08-6.41750E-04-4.30288E-09
 -1       159-2.00326E-05-6.28414E-04-1.47311E-04
 -1       160 1.04295E-08-2.44003E-04 2.42391E-09
 -1       182-4.22063E-06-1.17201E-03-1.74705E-04
 -1       183-9.10742E-10-1.40117E-03-1.83325E-04
 -1       184 4.23147E-06-1.17202E-03-1.74708E-04
 -1       185 3.44819E-09-1.03134E-03-3.30364E-04
 -1       186 2.75293E-06-7.59788E-04-3.67143E-04
 -1       187 3.66396E-09-7.04493E-04-3.74179E-04
 -1       188-2.74785E-06-7.59787E-04-3.67146E-04
 -1       189 7.75597E-10-2.97457E-04-2.18663E-04
 -1       211-9.99848E-05-1.51934E-03-8.23668E-05
 -1       212 3.98313E-08-1.34498E-03-7.94595E-09
 -1       213 9.99914E-05-1.51926E-03 8.23490E-05
 -1       214 3.31259E-08-1.11444E-03-1.74492E-08
 -1       215 2.00369E-05-6.28414E-04-1.47317E-04
 -1       216-1.74104E-08-6.41752E-04-9.55359E-09
 -1       217-2.00361E-05-6.28425E-04 1.47307E-04
 -1       218-9.14581E-09-2.44003E-04 3.87234E-10
 -1       250 2.47675E-09-1.51210E-03 8.17628E-05
 -1       251 2.88462E-08-9.57651E-04-4.26207E-09
 -1       252 4.48483E-09-1.22185E-03-4.33371E-09
 -1       253-1.30824E-08-9.57644E-04-2.50340E-09
 -1       254 8.75240E-09-1.51215E-03-8.17831E-05
 -1       255 6.23239E-09-1.08995E-03-8.41397E-09
 -1       256 4.20128E-09-6.20409E-04 1.64268E-04
 -1       257-1.06500E-08-7.24363E-04-4.43613E-09
 -1       258 1.32087E-09-6.42981E-04-3.89355E-09
 -1       259 1.38235E-08-7.24367E-04-2.02154E-09
 -1       260 1.01386E-09-6.20419E-04-1.64274E-04
 -1       261 5.82392E-10-2.75986E-04-4.05399E-10
 -3
    1PSTEP                         4           4           1          
  100CL  104 4.00000E-02          81                     1    4           1
 -4  DISP        4    1
 -5  D1          1    2    1    0
 -5  D2          1    2    2    0
 -5  D3          1    2    3    0
 -5  ALL         1    2    0    0    1ALL
 -1         5 0.00000E+00 0.00000E+00 0.00000E+00
 -1         6 0.00000E+00 0.00000E+00 0.00000E+00
 -1         7 0.00000E+00 0.00000E+00 0.00000E+00
 -1         8 0.00000E+00 0.00000E+00 0.00000E+00
 -1        21 0.00000E+00 0.00000E+00 0.00000E+00
 -1        22 0.00000E+00 0.00000E+00 0.00000E+00
 -1        23 0.00000E+00 0.00000E+00 0.00000E+00
 -1        24 0.00000E+00 0.00000E+00 0.00000E+00
 -1        25 0.00000E+00 0.00000E+00 0.00000E+00
 -1        26 0.00000E+00 0.00000E+00 0.00000E+00
 -1        27 0.00000E+00 0.00000E+00 0.00000E+00
 -1        28 0.00000E+00 0.00000E+00 0.00000E+00
 -1        29 0.00000E+00 0.00000E+00 0.00000E+00
 -1        30 0.00000E+00 0.00000E+00 0.00000E+00
 -1        31 0.00000E+00 0.00000E+00 0.00000E+00
 -1        32 0.00000E+00 0.00000E+00 0.00000E+00
 -1        44-9.40156E-05 9.88719E-04-1.43906E-04
 -1        45-2.16653E-05 7.68116E-04-2.31907E-04
 -1        46 2.56306E-05 5.61990E-04-2.65559E-04
 -1        47-3.31412E-05 2.27570E-04-1.74713E-04
 -1        48 3.31428E-05 2.27570E-04-1.74714E-04
 -1        49-2.56267E-05 5.61990E-04-2.65561E-04
 -1        50 2.16704E-05 7.68116E-04-2.31912E-04
 -1        51 9.40288E-05 9.88721E-04-1.43908E-04
 -1        74 9.40484E-05 9.88738E-04 1.43909E-04
 -1        75 2.16771E-05 7.68121E-04 2.31910E-04
 -1        76-2.56276E-05 5.61986E-04 2.65561E-04
 -1        77 3.31404E-05 2.27568E-04 1.74715E-04
 -1        89-9.40374E-05 9.88740E-04 1.43908E-04
 -1        90-2.16694E-05 7.68119E-04 2.31906E-04
 -1        91 2.56315E-05 5.61986E-04 2.65556E-04
 -1        92-3.31399E-05 2.27568E-04 1.74713E-04
 -1        98 0.00000E+00 0.00000E+00 0.00000E+00
 -1        99 0.00000E+00 0.00000E+00 0.00000E+00
 -1       100 0.00000E+00 0.00000E+00 0.00000E+00
 -1       101 0.00000E+00 0.00000E+00 0.00000E+00
 -1       102 0.00000E+00 0.00000E+00 0.00000E+00
 -1       124 3.31814E-06 9.09790E-04-1.35598E-04
 -1       125 1.24887E-08 1.08738E-03-1.42291E-04
 -1       126-3.29563E-06 9.09795E-04-1.35597E-04
 -1       127 3.41894E-09 8.00457E-04-2.56415E-04
 -1       128-2.14368E-06 5.89686E-04-2.84963E-04
 -1       129 1.62835E-09 5.46815E-04-2.90429E-04
 -1       130 2.14629E-06 5.89684E-04-2.84962E-04
 -1       131 1.54899E-10 2.30891E-04-1.69721E-04
 -1       153 7.76785E-05 1.17928E-03-6.39224E-05
 -1       154 1.90766E-08 1.04417E-03 1.45220E-09
 -1       155-7.76822E-05 1.17928E-03 6.39260E-05
 -1       156 1.02632E-08 8.65024E-04 2.35414E-09
 -1       157-1.55673E-05 4.87790E-04-1.14334E-04
 -1       158-3.60771E-09 4.98128E-04 2.44331E-09
 -1       159 1.55742E-05 4.87793E-04 1.14338E-04
 -1       160-1.58012E-09 1.89381E-04 5.10363E-10
 -1       182 3.33715E-06 9.09783E-04 1.35599E-04
 -1       183 1.25048E-09 1.08741E-03 1.42291E-04
 -1       184-3.32682E-06 9.09780E-04 1.35598E-04
 -1       185 2.60968E-09 8.00471E-04 2.56415E-04
 -1       186-2.14714E-06 5.89689E-04 2.84964E-04
 -1       187 2.40380E-09 5.46810E-04 2.90430E-04
 -1       188 2.15054E-06 5.89690E-04 2.84962E-04
 -1       189 5.13454E-10 2.30888E-04 1.69721E-04
 -1       211 7.76954E-05 1.17928E-03 6.39222E-05
 -1       212-9.55792E-09 1.04418E-03-2.70168E-10
 -1       213-7.76737E-05 1.17929E-03-6.39251E-05
 -1       214-3.44511E-09 8.65026E-04-5.01804E-10
 -1       215-1.55709E-05 4.87792E-04 1.14334E-04
 -1       216 7.52136E-09 4.98127E-04-1.31526E-09
 -1       217 1.55728E-05 4.87790E-04-1.14336E-04
 -1       218 2.44312E-09 1.89381E-04-9.76426E-10
 -1       250 1.63265E-09 1.17359E-03-6.34680E-05
 -1       251 7.82092E-09 7.43272E-04-3.54718E-10
 -1       252 2.72954E-09 9.48381E-04-5.29905E-12
 -1       253 2.56096E-09 7.43276E-04 8.42052E-10
 -1       254 5.24888E-09 1.17362E-03 6.34699E-05
 -1       255 4.30924E-09 8.46042E-04 9.27783E-10
 -1       256 2.64437E-09 4.81549E-04-1.27507E-04
 -1       257 1.64493E-09 5.62262E-04-5.34171E-10
 -1       258 8.36163E-10 4.99034E-04 3.25401E-10
 -1       259 3.71140E-10 5.62261E-04 1.05985E-09
 -1       260 9.55303E-10 4.81543E-04 1.27507E-04
 -1       261 3.71116E-10 2.14211E-04 3.12849E-10
 -3
    1PSTEP                         5           5           1          
  100CL  105 5.00000E-02          81                     1    5           1
 -4  DISP        4    1
 -5  D1          1    2    1    0
 -5  D2          1    2    2    0
 -5  D3          1    2    3    0
 -5  ALL         1    2    0    0    1ALL
 -1         5 0.00000E+00 0.00000E+00 0.00000E+00
 -1         6 0.00000E+00 0.00000E+00 0.00000E+00
 -1         7 0.00000E+00 0.00000E+00 0.00000E+00
 -1         8 0.00000E+00 0.00000E+00 0.00000E+00
 -1        21 0.00000E+00 0.00000E+00 0.00000E+00
 -1        22 0.00000E+00 0.00000E+00 0.00000E+00
 -1        23 0.00000E+00 0.00000E+00 0.00000E+00
 -1        24 0.00000E+00 0.00000E+00 0.00000E+00
 -1        25 0.00000E+00 0.00000E+00 0.00000E+00
 -1        26 0.00000E+00 0.00000E+00 0.00000E+00
 -1        27 0.00000E+00 0.00000E+00 0.00000E+00
 -1        28 0.00000E+00 0.00000E+00 0.00000E+00
 -1        29 0.00000E+00 0.00000E+00 0.00000E+00
 -1        30 0.00000E+00 0.00000E+00 0.00000E+00
 -1        31 0.00000E+00 0.00000E+00 0.00000E+00
 -1        32 0.00000E+00 0.00000E+00 0.00000E+00
 -1        44 7.09882E-05-7.46388E-04 1.08633E-04
 -1        45 1.63599E-05-5.79846E-04 1.75065E-04
 -1        46-1.93463E-05-4.24235E-04 2.00467E-04
 -1        47 2.50184E-05-1.71788E-04 1.31889E-04
 -1        48-2.50173E-05-1.71787E-04 1.31889E-04
 -1        49 1.93485E-05-4.24235E-04 2.00467E-04
 -1        50-1.63571E-05-5.79847E-04 1.75062E-04
 -1        51-7.09795E-05-7.46386E-04 1.08632E-04
 -1        74-7.09860E-05-7.46381E-04-1.08632E-04
 -1        75-1.63593E-05-5.79842E-04-1.75062E-04
 -1        76 1.93497E-05-4.24236E-04-2.00465E-04
 -1        77-2.50170E-05-1.71789E-04-1.31889E-04
 -1        89 7.09918E-05-7.46379E-04-1.08634E-04
 -1        90 1.63644E-05-5.79843E-04-1.75065E-04
 -1        91-1.93476E-05-4.24236E-04-2.00469E-04
 -1        92 2.50170E-05-1.71788E-04-1.31889E-04
 -1        98 0.00000E+00 0.00000E+00 0.00000E+00
 -1        99 0.00000E+00 0.00000E+00 0.00000E+00
 -1       100 0.00000E+00 0.00000E+00 0.00000E+00
 -1       101 0.00000E+00 0.00000E+00 0.00000E+00
 -1       102 0.00000E+00 0.00000E+00 0.00000E+00
 -1       124-2.49480E-06-6.86781E-04 1.02360E-04
 -1       125 9.27325E-09-8.20872E-04 1.07412E-04
 -1       126 2.51012E-06-6.86777E-04 1.02360E-04
 -1       127 2.23170E-09-6.04263E-04 1.93564E-04
 -1       128 1.62069E-06-4.45148E-04 2.15114E-04
 -1       129 7.79156E-10-4.12779E-04 2.19241E-04
 -1       130-1.61931E-06-4.45149E-04 2.15114E-04
 -1       131 5.14289E-11-1.74294E-04 1.28120E-04
 -1       153-5.86406E-05-8.90228E-04 4.82557E-05
 -1       154 2.58938E-09-7.88226E-04 3.95838E-10
 -1       155 5.86478E-05-8.90221E-04-4.82535E-05
 -1       156 2.51378E-09-6.52994E-04 1.27337E-09
 -1       157 1.17562E-05-3.68226E-04 8.63108E-05
 -1       158 1.09549E-09-3.76031E-04 1.22308E-09
 -1       159-1.17540E-05-3.68227E-04-8.63090E-05
 -1       160 1.37899E-10-1.42963E-04 4.36878E-10
 -1       182-2.50666E-06-6.86780E-04-1.02360E-04
 -1       183-1.71998E-09-8.20869E-04-1.07412E-04
 -1       184 2.50958E-06-6.86784E-04-1.02361E-04
 -1       185 1.32417E-09-6.04263E-04-1.93565E-04
 -1       186 1.62235E-06-4.45149E-04-2.15113E-04
 -1       187 1.48734E-09-4.12780E-04-2.19241E-04
 -1       188-1.62027E-06-4.45148E-04-2.15115E-04
 -1       189 3.60799E-10-1.74294E-04-1.28120E-04
 -1       211-5.86385E-05-8.90216E-04-4.82558E-05
 -1       212 3.64521E-09-7.88215E-04-1.09736E-09
 -1       213 5.86425E-05-8.90221E-04 4.82536E-05
 -1       214 1.55470E-09-6.52993E-04-5.19419E-10
 -1       215 1.17555E-05-3.68228E-04-8.63115E-05
 -1       216 1.12130E-09-3.76032E-04-8.87794E-10
 -1       217-1.17527E-05-3.68226E-04 8.63095E-05
 -1       218 3.68693E-10-1.42963E-04-4.30783E-10
 -1       250 6.48711E-10-8.85940E-04 4.79116E-05
 -1       251 9.29631E-10-5.61092E-04-6.20515E-10
 -1       252 2.01887E-09-7.15912E-04 8.03781E-11
 -1       253 5.59515E-09-5.61089E-04 1.39784E-10
 -1       254 3.93637E-09-8.85944E-04-4.79115E-05
 -1       255 2.46365E-09-6.38661E-04-1.98329E-11
 -1       256 1.83509E-09-3.63514E-04 9.62534E-05
 -1       257 1.22240E-09-4.24442E-04-4.78953E-10
 -1       258 5.70887E-10-3.76718E-04-2.71966E-11
 -1       259 7.51860E-11-4.24444E-04 4.67830E-10
 -1       260 2.13759E-10-3.63513E-04-9.62534E-05
 -1       261 2.16315E-10-1.61706E-04 2.41000E-11
 -3
    1PSTEP                         6           6           1          
  100CL  106 6.00000E-02          81                     1    6           1
 -4  DISP        4    1
 -5  D1          1    2    1    0
 -5  D2          1    2    2    0
 -5  D3          1    2    3    0
 -5  ALL         1    2    0    0    1ALL
 -1         5 0.00000E+00 0.00000E+00 0.00000E+00
 -1         6 0.00000E+00 0.00000E+00 0.00000E+00
 -1         7 0.00000E+00 0.00000E+00 0.00000E+00
 -1         8 0.00000E+00 0.00000E+00 0.00000E+00
 -1        21 0.00000E+00 0.00000E+00 0.00000E+00
 -1        22 0.00000E+00 0.00000E+00 0.00000E+00
 -1        23 0.00000E+00 0.00000E+00 0.00000E+00
 -1        24 0.00000E+00 0.00000E+00 0.00000E+00
 -1        25 0.00000E+00 0.00000E+00 0.00000E+00
 -1        26 0.00000E+00 0.00000E+00 0.00000E+00
 -1        27 0.00000E+00 0.00000E+00 0.00000E+00
 -1        28 0.00000E+00 0.00000E+00 0.00000E+00
 -1        29 0.00000E+00 0.00000E+00 0.00000E+00
 -1        30 0.00000E+00 0.00000E+00 0.00000E+00
 -1        31 0.00000E+00 0.00000E+00 0.00000E+00
 -1        32 0.00000E+00 0.00000E+00 0.00000E+00
 -1        44-5.14776E-05 5.41217E-04-7.87716E-05
 -1        45-1.18649E-05 4.20459E-04-1.26942E-04
 -1        46 1.40325E-05 3.07629E-04-1.45364E-04
 -1        47-1.81396E-05 1.24570E-04-9.56363E-05