    1C
    1UUSER                                                              
    1UDATE              09.july.2018                                    
    1UTIME              11:05:15                                        
    1UHOST                                                              
    1UPGM               CalculiX                                        
    1UVERSION           Version 2.13                             
    1UCOMPILETIME       jue jun 14 00:40:39 CEST 2018                    
    1UDIR                                                               
    1UDBN                                                               
    1UMAT    1EL                                                        
    2C                            81                                     1
 -1         5 0.00000E+00 0.00000E+00 8.00000E+00
 -1         6 1.00000E+00 0.00000E+00 8.00000E+00
 -1         7 1.00000E+00 1.00000E+00 8.00000E+00
 -1         8 0.00000E+00 1.00000E+00 8.00000E+00
 -1        21 2.50000E-01 0.00000E+00 8.00000E+00
 -1        22 5.00000E-01 0.00000E+00 8.00000E+00
 -1        23 7.50000E-01 0.00000E+00 8.00000E+00
 -1        24 1.00000E+00 2.50000E-01 8.00000E+00
 -1        25 1.00000E+00 5.00000E-01 8.00000E+00
 -1        26 1.00000E+00 7.50000E-01 8.00000E+00
 -1        27 7.50000E-01 1.00000E+00 8.00000E+00
 -1        28 5.00000E-01 1.00000E+00 8.00000E+00
 -1        29 2.50000E-01 1.00000E+00 8.00000E+00
 -1        30 0.00000E+00 7.50000E-01 8.00000E+00
 -1        31 0.00000E+00 5.00000E-01 8.00000E+00
 -1        32 0.00000E+00 2.50000E-01 8.00000E+00
 -1        44 1.00000E+00 0.00000E+00 6.00000E+00
 -1        45 1.00000E+00 0.00000E+00 6.50000E+00
 -1        46 1.00000E+00 0.00000E+00 7.00000E+00
 -1        47 1.00000E+00 0.00000E+00 7.50000E+00
 -1        48 0.00000E+00 0.00000E+00 7.50000E+00
 -1        49 0.00000E+00 0.00000E+00 7.00000E+00
 -1        50 0.00000E+00 0.00000E+00 6.50000E+00
 -1        51 0.00000E+00 0.00000E+00 6.00000E+00
 -1        74 1.00000E+00 1.00000E+00 6.00000E+00
 -1        75 1.00000E+00 1.00000E+00 6.50000E+00
 -1        76 1.00000E+00 1.00000E+00 7.00000E+00
 -1        77 1.00000E+00 1.00000E+00 7.50000E+00
 -1        89 0.00000E+00 1.00000E+00 6.00000E+00
 -1        90 0.00000E+00 1.00000E+00 6.50000E+00
 -1        91 0.00000E+00 1.00000E+00 7.00000E+00
 -1        92 0.00000E+00 1.00000E+00 7.50000E+00
 -1        98 5.00000E-01 2.50000E-01 8.00000E+00
 -1        99 2.50000E-01 5.00000E-01 8.00000E+00
 -1       100 5.00000E-01 5.00000E-01 8.00000E+00
 -1       101 7.50000E-01 5.00000E-01 8.00000E+00
 -1       102 5.00000E-01 7.50000E-01 8.00000E+00
 -1       124 2.50000E-01 0.00000E+00 6.00000E+00
 -1       125 5.00000E-01 0.00000E+00 6.00000E+00
 -1       126 7.50000E-01 0.00000E+00 6.00000E+00
 -1       127 5.00000E-01 0.00000E+00 6.50000E+00
 -1       128 2.50000E-01 0.00000E+00 7.00000E+00
 -1       129 5.00000E-01 0.00000E+00 7.00000E+00
 -1       130 7.50000E-01 0.00000E+00 7.00000E+00
 -1       131 5.00000E-01 0.00000E+00 7.50000E+00
 -1       153 1.00000E+00 2.50000E-01 6.00000E+00
 -1       154 1.00000E+00 5.00000E-01 6.00000E+00
 -1       155 1.00000E+00 7.50000E-01 6.00000E+00
 -1       156 1.00000E+00 5.00000E-01 6.50000E+00
 -1       157 1.00000E+00 2.50000E-01 7.00000E+00
 -1       158 1.00000E+00 5.00000E-01 7.00000E+00
 -1       159 1.00000E+00 7.50000E-01 7.00000E+00
 -1       160 1.00000E+00 5.00000E-01 7.50000E+00
 -1       182 7.50000E-01 1.00000E+00 6.00000E+00
 -1       183 5.00000E-01 1.00000E+00 6.00000E+00
 -1       184 2.50000E-01 1.00000E+00 6.00000E+00
 -1       185 5.00000E-01 1.00000E+00 6.50000E+00
 -1       186 7.50000E-01 1.00000E+00 7.00000E+00
 -1       187 5.00000E-01 1.00000E+00 7.00000E+00
 -1       188 2.50000E-01 1.00000E+00 7.00000E+00
 -1       189 5.00000E-01 1.00000E+00 7.50000E+00
 -1       211 0.00000E+00 7.50000E-01 6.00000E+00
 -1       212 0.00000E+00 5.00000E-01 6.00000E+00
 -1       213 0.00000E+00 2.50000E-01 6.00000E+00
 -1       214 0.00000E+00 5.00000E-01 6.50000E+00
 -1       215 0.00000E+00 7.50000E-01 7.00000E+00
 -1       216 0.00000E+00 5.00000E-01 7.00000E+00
 -1       217 0.00000E+00 2.50000E-01 7.00000E+00
 -1       218 0.00000E+00 5.00000E-01 7.50000E+00
 -1       250 5.00000E-01 2.50000E-01 6.00000E+00
 -1       251 2.50000E-01 5.00000E-01 6.00000E+00
 -1       252 5.00000E-01 5.00000E-01 6.00000E+00
 -1       253 7.50000E-01 5.00000E-01 6.00000E+00
 -1       254 5.00000E-01 7.50000E-01 6.00000E+00
 -1       255 5.00000E-01 5.00000E-01 6.50000E+00
 -1       256 5.00000E-01 2.50000E-01 7.00000E+00
 -1       257 2.50000E-01 5.00000E-01 7.00000E+00
 -1       258 5.00000E-01 5.00000E-01 7.00000E+00
 -1       259 7.50000E-01 5.00000E-01 7.00000E+00
 -1       260 5.00000E-01 7.50000E-01 7.00000E+00
 -1       261 5.00000E-01 5.00000E-01 7.50000E+00
 -3
    3C                             8                                     1
 -1        25    4    0    1
 -2        51       125       252       212        49       129       258       216       124       250
 -2       251       213        50       127       255       214       128       256       257       217
 -1        26    4    0    1
 -2       125        44       154       252       129        46       158       258       126       153
 -2       253       250       127        45       156       255       130       157       259       256
 -1        27    4    0    1
 -2       212       252       183        89       216       258       187        91       251       254
 -2       184       211       214       255       185        90       257       260       188       215
 -1        28    4    0    1
 -2       252       154        74       183       258       158        76       187       253       155
 -2       182       254       255       156        75       185       259       159       186       260
 -1        29    4    0    1
 -2        49       129       258       216         5        22       100        31       128       256
 -2       257       217        48       131       261       218        21        98        99        32
 -1        30    4    0    1
 -2       129        46       158       258        22         6        25       100       130       157
 -2       259       256       131        47       160       261        23        24       101        98
 -1        31    4    0    1
 -2       216       258       187        91        31       100        28         8       257       260
 -2       188       215       218       261       189        92        99       102        29        30
 -1        32    4    0    1
 -2       258       158        76       187       100        25         7        28       259       159
 -2       186       260       261       160        77       189       101        26        27       102
 -3
    1PSTEP                         1           1           1          
  100CL  101 1.00000E-02          81                     1    1           1
 -4  DISP        4    1
 -5  D1          1    2    1    0
 -5  D2          1    2    2    0
 -5  D3          1    2    3    0
 -5  ALL         1    2    0    0    1ALL
 -1         5 0.00000E+00 0.00000E+00 0.00000E+00
 -1         6 0.00000E+00 0.00000E+00 0.00000E+00
 -1         7 0.00000E+00 0.00000E+00 0.00000E+00
 -1         8 0.00000E+00 0.00000E+00 0.00000E+00
 -1        21 0.00000E+00 0.00000E+00 0.00000E+00
 -1        22 0.00000E+00 0.00000E+00 0.00000E+00
 -1        23 0.00000E+00 0.00000E+00 0.00000E+00
 -1        24 0.00000E+00 0.00000E+00 0.00000E+00
 -1        25 0.00000E+00 0.00000E+00 0.00000E+00
 -1        26 0.00000E+00 0.00000E+00 0.00000E+00
 -1        27 0.00000E+00 0.00000E+00 0.00000E+00
 -1        28 0.00000E+00 0.00000E+00 0.00000E+00
 -1        29 0.00000E+00 0.00000E+00 0.00000E+00
 -1        30 0.00000E+00 0.00000E+00 0.00000E+00
 -1        31 0.00000E+00 0.00000E+00 0.00000E+00
 -1        32 0.00000E+00 0.00000E+00 0.00000E+00
 -1        44 1.46894E-04-1.99804E-03 2.88029E-04
 -1        45 4.41474E-05-1.54647E-03 4.58398E-04
 -1        46-5.08458E-05-1.13859E-03 5.46011E-04
 -1        47 7.07815E-05-4.52264E-04 3.49598E-04
 -1        48-7.07813E-05-4.52264E-04 3.49599E-04
 -1        49 5.08452E-05-1.13859E-03 5.46011E-04
 -1        50-4.41483E-05-1.54647E-03 4.58400E-04
 -1        51-1.46898E-04-1.99805E-03 2.88042E-04
 -1        74-1.27874E-04-2.08142E-03-2.93841E-04
 -1        75-2.50245E-05-1.58170E-03-4.59163E-04
 -1        76 3.83111E-05-1.12178E-03-5.46523E-04
 -1        77-7.71041E-05-4.39204E-04-3.51076E-04
 -1        89 1.27868E-04-2.08141E-03-2.93831E-04
 -1        90 2.50259E-05-1.58171E-03-4.59163E-04
 -1        91-3.83133E-05-1.12178E-03-5.46523E-04
 -1        92 7.71046E-05-4.39204E-04-3.51077E-04
 -1        98 0.00000E+00 0.00000E+00 0.00000E+00
 -1        99 0.00000E+00 0.00000E+00 0.00000E+00
 -1       100 0.00000E+00 0.00000E+00 0.00000E+00
 -1       101 0.00000E+00 0.00000E+00 0.00000E+00
 -1       102 0.00000E+00 0.00000E+00 0.00000E+00
 -1       124 4.68072E-05-1.82984E-03 2.69330E-04
 -1       125-2.55043E-09-2.22014E-03 2.85881E-04
 -1       126-4.68109E-05-1.82984E-03 2.69322E-04
 -1       127 9.02360E-10-1.61661E-03 5.35607E-04
 -1       128-5.17600E-06-1.19613E-03 5.76538E-04
 -1       129-1.06336E-09-1.10148E-03 5.82348E-04
 -1       130 5.17444E-06-1.19613E-03 5.76538E-04
 -1       131 7.97782E-11-4.65203E-04 3.42989E-04
 -1       153-1.15375E-04-2.33321E-03 1.24743E-04
 -1       154-1.31897E-05-1.94053E-03-1.71958E-06
 -1       155 1.16707E-04-2.35296E-03-1.29572E-04
 -1       156-1.06286E-05-1.75743E-03-6.17042E-06
 -1       157 1.91578E-05-9.66539E-04 2.33042E-04
 -1       158 7.88450E-06-9.83014E-04-2.82616E-06
 -1       159-1.71389E-05-9.64542E-04-2.35205E-04
 -1       160 3.70681E-06-3.88521E-04 5.18888E-07
 -1       182 3.97167E-05-1.79514E-03-2.74505E-04
 -1       183 1.82389E-09-2.28837E-03-2.89372E-04
 -1       184-3.97172E-05-1.79514E-03-2.74503E-04
 -1       185-6.32478E-10-1.64104E-03-5.32830E-04
 -1       186-7.03260E-06-1.21570E-03-5.80192E-04
 -1       187 2.23001E-10-1.10471E-03-5.85321E-04
 -1       188 7.03159E-06-1.21570E-03-5.80192E-04
 -1       189-4.18236E-11-4.63942E-04-3.44255E-04
 -1       211-1.16705E-04-2.35296E-03-1.29575E-04
 -1       212 1.31983E-05-1.94053E-03-1.72792E-06
 -1       213 1.15378E-04-2.33322E-03 1.24744E-04
 -1       214 1.06270E-05-1.75742E-03-6.17132E-06
 -1       215 1.71384E-05-9.64541E-04-2.35204E-04
 -1       216-7.88305E-06-9.83014E-04-2.82577E-06
 -1       217-1.91575E-05-9.66541E-04 2.33042E-04
 -1       218-3.70727E-06-3.88521E-04 5.18684E-07
 -1       250-1.96587E-09-2.41684E-03 1.26896E-04
 -1       251 3.56035E-06-1.51011E-03 1.50796E-07
 -1       252-1.02041E-10-1.97294E-03 7.76277E-07
 -1       253-3.55723E-06-1.51011E-03 1.52090E-07
 -1       254 7.68353E-10-2.44942E-03-1.35848E-04
 -1       255 2.86412E-10-1.67375E-03-2.09925E-06
 -1       256-5.02275E-10-9.85858E-04 2.54190E-04
 -1       257-3.66789E-06-1.12566E-03-1.35234E-06
 -1       258-2.98074E-10-1.04152E-03-1.61320E-06
 -1       259 3.66852E-06-1.12566E-03-1.35183E-06
 -1       260 1.22935E-11-9.87249E-04-2.56075E-04
 -1       261-1.02604E-10-4.34427E-04-3.30431E-07
 -3
    1PSTEP                         2           2           1          
  100CL  102 2.00000E-02          81                     1    2           1
 -4  DISP        4    1
 -5  D1          1    2    1    0
 -5  D2          1    2    2    0
 -5  D3          1    2    3    0
 -5  ALL         1    2    0    0    1ALL
 -1         5 0.00000E+00 0.00000E+00 0.00000E+00
 -1         6 0.00000E+00 0.00000E+00 0.00000E+00
 -1         7 0.00000E+00 0.00000E+00 0.00000E+00
 -1         8 0.00000E+00 0.00000E+00 0.00000E+00
 -1        21 0.00000E+00 0.00000E+00 0.00000E+00
 -1        22 0.00000E+00 0.00000E+00 0.00000E+00
 -1        23 0.00000E+00 0.00000E+00 0.00000E+00
 -1        24 0.00000E+00 0.00000E+00 0.00000E+00
 -1        25 0.00000E+00 0.00000E+00 0.00000E+00
 -1        26 0.00000E+00 0.00000E+00 0.00000E+00
 -1        27 0.00000E+00 0.00000E+00 0.00000E+00
 -1        28 0.00000E+00 0.00000E+00 0.00000E+00
 -1        29 0.00000E+00 0.00000E+00 0.00000E+00
 -1        30 0.00000E+00 0.00000E+00 0.00000E+00
 -1        31 0.00000E+00 0.00000E+00 0.00000E+00
 -1        32 0.00000E+00 0.00000E+00 0.00000E+00
 -1        44-1.32041E-04 1.62006E-03-2.34030E-04
 -1        45-3.29496E-05 1.25277E-03-3.79391E-04
 -1        46 3.89539E-05 9.08733E-04-4.33440E-04
 -1        47-5.52689E-05 3.67386E-04-2.82558E-04
 -1        48 5.52120E-05 3.67359E-04-2.82474E-04
 -1        49-3.91362E-05 9.08723E-04-4.33276E-04
 -1        50 3.25557E-05 1.25274E-03-3.79175E-04
 -1        51 1.31443E-04 1.62010E-03-2.33814E-04
 -1        74 1.17222E-04 1.67183E-03 2.32772E-04
 -1        75 1.79573E-05 1.27610E-03 3.76580E-04
 -1        76-3.05018E-05 8.95013E-04 4.32493E-04
 -1        77 5.88628E-05 3.59827E-04 2.82869E-04
 -1        89-1.17802E-04 1.67180E-03 2.32980E-04
 -1        90-1.83605E-05 1.27614E-03 3.76798E-04
 -1        91 3.03258E-05 8.95019E-04 4.32660E-04
 -1        92-5.89208E-05 3.59855E-04 2.82957E-04
 -1        98 0.00000E+00 0.00000E+00 0.00000E+00
 -1        99 0.00000E+00 0.00000E+00 0.00000E+00
 -1       100 0.00000E+00 0.00000E+00 0.00000E+00
 -1       101 0.00000E+00 0.00000E+00 0.00000E+00
 -1       102 0.00000E+00 0.00000E+00 0.00000E+00
 -1       124 4.02557E-06 1.47567E-03-2.19301E-04
 -1       125-3.10954E-07 1.75958E-03-2.30645E-04
 -1       126-4.63357E-06 1.47566E-03-2.19421E-04
 -1       127-1.85797E-07 1.29463E-03-4.15657E-04
 -1       128-4.44047E-06 9.59283E-04-4.62802E-04
 -1       129-9.21532E-08 8.92405E-04-4.71012E-04
 -1       130 4.26026E-06 9.59287E-04-4.62880E-04
 -1       131-2.09080E-08 3.75993E-04-2.76619E-04
 -1       153 1.09722E-04 1.89826E-03-1.03420E-04
 -1       154 6.69612E-06 1.65778E-03-5.99347E-07
 -1       155-1.10067E-04 1.91183E-03 1.03421E-04
 -1       156 6.89152E-06 1.39909E-03 2.56863E-06
 -1       157-2.18176E-05 7.91842E-04-1.86871E-04
 -1       158-4.70358E-06 8.10037E-04 7.94646E-07
 -1       159 2.15433E-05 7.88268E-04 1.86298E-04
 -1       160-1.91750E-06 3.10656E-04-1.66375E-07
 -1       182 6.07289E-06 1.45289E-03 2.19436E-04
 -1       183-3.23041E-07 1.80004E-03 2.30486E-04
 -1       184-6.68426E-06 1.45288E-03 2.19571E-04
 -1       185-1.80966E-07 1.30620E-03 4.13246E-04
 -1       186-2.48005E-06 9.65118E-04 4.62925E-04
 -1       187-9.65454E-08 8.84347E-04 4.69708E-04
 -1       188 2.29856E-06 9.65120E-04 4.63001E-04
 -1       189-2.05071E-08 3.72742E-04 2.75877E-04
 -1       211 1.09537E-04 1.91182E-03 1.03643E-04
 -1       212-7.17059E-06 1.65779E-03-4.18425E-07
 -1       213-1.10261E-04 1.89827E-03-1.03202E-04
 -1       214-7.34434E-06 1.39909E-03 2.76792E-06
 -1       215-2.17108E-05 7.88270E-04 1.86461E-04
 -1       216 4.55132E-06 8.10038E-04 9.67045E-07
 -1       217 2.16468E-05 7.91839E-04-1.86708E-04
 -1       218 1.84406E-06 3.10655E-04-6.55438E-08
 -1       250-3.45607E-07 1.91139E-03-1.02185E-04
 -1       251-2.75229E-06 1.21602E-03 4.07038E-07
 -1       252-3.74470E-07 1.53036E-03 4.76164E-06
 -1       253 2.13950E-06 1.21602E-03 2.00516E-07
 -1       254-3.52932E-07 1.92816E-03 1.03882E-04
 -1       255-1.69379E-07 1.36531E-03 1.38980E-06
 -1       256-1.07907E-07 7.84736E-04-2.05742E-04
 -1       257 1.89508E-06 9.09520E-04 9.36393E-08
 -1       258-1.20787E-07 8.17946E-04-3.10093E-07
 -1       259-2.08957E-06 9.09520E-04 3.53118E-08
 -1       260-1.09829E-07 7.81448E-04 2.06120E-04
 -1       261-2.18392E-08 3.50107E-04 3.37329E-08
 -3
    1PSTEP                         3           3           1          
  100CL  103 3.00000E-02          81                     1    3           1
 -4  DISP        4    1
 -5  D1          1    2    1    0
 -5  D2          1    2    2    0
 -5  D3          1    2    3    0
 -5  ALL         1    2    0    0    1ALL
 -1         5 0.00000E+00 0.00000E+00 0.00000E+00
 -1         6 0.00000E+00 0.00000E+00 0.00000E+00
 -1         7 0.00000E+00 0.00000E+00 0.00000E+00
 -1         8 0.00000E+00 0.00000E+00 0.00000E+00
 -1        21 0.00000E+00 0.00000E+00 0.00000E+00
 -1        22 0.00000E+00 0.00000E+00 0.00000E+00
 -1        23 0.00000E+00 0.00000E+00 0.00000E+00
 -1        24 0.00000E+00 0.00000E+00 0.00000E+00
 -1        25 0.00000E+00 0.00000E+00 0.00000E+00
 -1        26 0.00000E+00 0.00000E+00 0.00000E+00
 -1        27 0.00000E+00 0.00000E+00 0.00000E+00
 -1        28 0.00000E+00 0.00000E+00 0.00000E+00
 -1        29 0.00000E+00 0.00000E+00 0.00000E+00
 -1        30 0.00000E+00 0.00000E+00 0.00000E+00
 -1        31 0.00000E+00 0.00000E+00 0.00000E+00
 -1        32 0.00000E+00 0.00000E+00 0.00000E+00
 -1        44 1.17530E-04-1.27989E-03 1.85156E-04
 -1        45 2.73218E-05-9.92776E-04 2.99565E-04
 -1        46-3.18378E-05-7.20897E-04 3.42463E-04
 -1        47 4.31346E-05-2.91997E-04 2.24645E-04
 -1        48-4.31443E-05-2.92001E-04 2.24656E-04
 -1        49 3.18203E-05-7.20890E-04 3.42477E-04
 -1        50-2.73742E-05-9.92787E-04 2.99595E-04
 -1        51-1.17592E-04-1.27985E-03 1.85164E-04
 -1        74-1.07663E-04-1.29557E-03-1.85037E-04
 -1        75-2.09236E-05-1.00067E-03-2.98872E-04
 -1        76 2.85395E-05-7.16698E-04-3.42242E-04
 -1        77-4.48644E-05-2.89657E-04-2.24747E-04
 -1        89 1.07614E-04-1.29559E-03-1.85051E-04
 -1        90 2.08735E-05-1.00066E-03-2.98862E-04
 -1        91-2.85604E-05-7.16697E-04-3.42214E-04
 -1        92 4.48576E-05-2.89655E-04-2.24735E-04
 -1        98 0.00000E+00 0.00000E+00 0.00000E+00
 -1        99 0.00000E+00 0.00000E+00 0.00000E+00
 -1       100 0.00000E+00 0.00000E+00 0.00000E+00
 -1       101 0.00000E+00 0.00000E+00 0.00000E+00
 -1       102 0.00000E+00 0.00000E+00 0.00000E+00
 -1       124-1.00262E-05-1.17117E-03 1.74393E-04
 -1       125-5.00587E-08-1.40023E-03 1.83272E-04
 -1       126 9.94559E-06-1.17118E-03 1.74396E-04
 -1       127-2.15067E-08-1.02934E-03 3.30339E-04
 -1       128 3.91660E-06-7.60013E-04 3.67195E-04
 -1       129-1.44817E-08-7.06216E-04 3.74149E-04
 -1       130-3.93953E-06-7.60017E-04 3.67186E-04
 -1       131-2.68066E-09-2.97636E-04 2.18876E-04
 -1       153-9.74604E-05-1.51200E-03 8.21027E-05
 -1       154 4.26604E-07-1.34130E-03 9.49921E-08
 -1       155 9.54862E-05-1.51979E-03-8.21091E-05
 -1       156-1.36308E-06-1.11501E-03-5.27994E-07
 -1       157 1.98653E-05-6.28194E-04 1.47658E-04
 -1       158 5.34338E-07-6.40379E-04-4.20474E-07
 -1       159-1.94029E-05-6.26223E-04-1.47641E-04
 -1       160 3.63765E-07-2.43849E-04-6.61047E-08
 -1       182-4.13106E-06-1.16473E-03-1.74479E-04
 -1       183-2.73130E-08-1.40988E-03-1.82576E-04
 -1       184 4.07728E-06-1.16474E-03-1.74462E-04
 -1       185-2.08024E-08-1.03123E-03-3.28869E-04
 -1       186 2.14463E-06-7.61482E-04-3.67259E-04
 -1       187-1.09717E-08-7.04351E-04-3.73887E-04
 -1       188-2.16557E-06-7.61481E-04-3.67250E-04
 -1       189-3.02200E-09-2.96984E-04-2.18755E-04
 -1       211-9.55265E-05-1.51981E-03-8.20882E-05
 -1       212-4.65508E-07-1.34132E-03 1.05853E-07
 -1       213 9.74068E-05-1.51199E-03 8.21155E-05
 -1       214 1.30459E-06-1.11501E-03-5.08337E-07
 -1       215 1.93830E-05-6.26226E-04-1.47621E-04
 -1       216-5.50583E-07-6.40384E-04-3.99151E-07
 -1       217-1.98820E-05-6.28192E-04 1.47675E-04
 -1       218-3.73531E-07-2.43848E-04-5.11994E-08
 -1       250-4.96488E-08-1.52213E-03 8.19630E-05
 -1       251 1.43750E-06-9.57884E-04 1.99620E-07
 -1       252-4.68492E-08-1.22274E-03 1.04865E-06
 -1       253-1.50442E-06-9.57871E-04 1.69344E-07
 -1       254-3.63126E-08-1.52184E-03-8.10744E-05
 -1       255-1.77531E-08-1.08880E-03-3.18856E-08
 -1       256-1.62025E-08-6.19454E-04 1.63868E-04
 -1       257-6.34126E-07-7.23896E-04 7.93061E-08
 -1       258-1.76174E-08-6.44054E-04-5.95604E-08
 -1       259 6.08616E-07-7.23893E-04 7.44176E-08
 -1       260-1.46493E-08-6.19626E-04-1.63957E-04
 -1       261-2.56691E-09-2.76196E-04-6.23836E-08
 -3
    1PSTEP                         4           4           1          
  100CL  104 4.00000E-02          81                     1    4           1
 -4  DISP        4    1
 -5  D1          1    2    1    0
 -5  D2          1    2    2    0
 -5  D3          1    2    3    0
 -5  ALL         1    2    0    0    1ALL
 -1         5 0.00000E+00 0.00000E+00 0.00000E+00
 -1         6 0.00000E+00 0.00000E+00 0.00000E+00
 -1         7 0.00000E+00 0.00000E+00 0.00000E+00
 -1         8 0.00000E+00 0.00000E+00 0.00000E+00
 -1        21 0.00000E+00 0.00000E+00 0.00000E+00
 -1        22 0.00000E+00 0.00000E+00 0.00000E+00
 -1        23 0.00000E+00 0.00000E+00 0.00000E+00
 -1        24 0.00000E+00 0.00000E+00 0.00000E+00
 -1        25 0.00000E+00 0.00000E+00 0.00000E+00
 -1        26 0.00000E+00 0.00000E+00 0.00000E+00
 -1        27 0.00000E+00 0.00000E+00 0.00000E+00
 -1        28 0.00000E+00 0.00000E+00 0.00000E+00
 -1        29 0.00000E+00 0.00000E+00 0.00000E+00
 -1        30 0.00000E+00 0.00000E+00 0.00000E+00
 -1        31 0.00000E+00 0.00000E+00 0.00000E+00
 -1        32 0.00000E+00 0.00000E+00 0.00000E+00
 -1        44-9.21807E-05 9.90238E-04-1.43736E-04
 -1        45-2.11710E-05 7.68295E-04-2.32037E-04
 -1        46 2.50300E-05 5.61450E-04-2.65755E-04
 -1        47-3.32856E-05 2.27254E-04-1.74545E-04
 -1        48 3.32975E-05 2.27262E-04-1.74572E-04
 -1        49-2.50347E-05 5.61415E-04-2.65781E-04
 -1        50 2.12383E-05 7.68345E-04-2.32067E-04
 -1        51 9.22071E-05 9.90132E-04-1.43690E-04
 -1        74 8.78176E-05 9.92407E-04 1.43780E-04
 -1        75 1.92480E-05 7.69794E-04 2.32076E-04
 -1        76-2.42353E-05 5.60937E-04 2.65736E-04
 -1        77 3.38471E-05 2.26897E-04 1.74519E-04
 -1        89-8.77820E-05 9.92358E-04 1.43769E-04
 -1        90-1.92201E-05 7.69828E-04 2.32079E-04
 -1        91 2.42716E-05 5.60911E-04 2.65725E-04
 -1        92-3.38423E-05 2.26900E-04 1.74524E-04
 -1        98 0.00000E+00 0.00000E+00 0.00000E+00
 -1        99 0.00000E+00 0.00000E+00 0.00000E+00
 -1       100 0.00000E+00 0.00000E+00 0.00000E+00
 -1       101 0.00000E+00 0.00000E+00 0.00000E+00
 -1       102 0.00000E+00 0.00000E+00 0.00000E+00
 -1       124 5.39003E-06 9.09293E-04-1.35543E-04
 -1       125 8.91055E-08 1.08625E-03-1.42294E-04
 -1       126-5.28970E-06 9.09336E-04-1.35517E-04
 -1       127 4.29916E-09 7.99601E-04-2.56136E-04
 -1       128-2.53033E-06 5.89775E-04-2.84904E-04
 -1       129 2.28284E-08 5.47217E-04-2.90235E-04
 -1       130 2.55093E-06 5.89794E-04-2.84901E-04
 -1       131 8.29163E-10 2.30969E-04-1.69759E-04
 -1       153 7.60435E-05 1.17650E-03-6.38993E-05
 -1       154-1.36635E-06 1.04137E-03-3.59566E-08
 -1       155-7.46051E-05 1.17967E-03 6.37328E-05
 -1       156-2.53530E-07 8.64833E-04-5.80097E-09
 -1       157-1.52323E-05 4.87756E-04-1.14400E-04
 -1       158 3.91459E-07 4.97610E-04 1.01538E-07
 -1       159 1.48955E-05 4.87035E-04 1.14426E-04
 -1       160 7.88730E-08 1.89467E-04 4.85678E-08
 -1       182 1.06585E-06 9.08754E-04 1.35304E-04
 -1       183-2.21518E-08 1.08584E-03 1.41857E-04
 -1       184-1.06495E-06 9.08735E-04 1.35319E-04
 -1       185 2.88469E-08 7.98971E-04 2.55773E-04
 -1       186-1.67584E-06 5.89832E-04 2.84882E-04
 -1       187 3.93024E-09 5.47324E-04 2.90068E-04
 -1       188 1.69696E-06 5.89818E-04 2.84875E-04
 -1       189 4.97614E-09 2.31159E-04 1.69730E-04
 -1       211 7.46060E-05 1.17970E-03 6.37941E-05
 -1       212 1.37202E-06 1.04149E-03-2.78921E-08
 -1       213-7.60098E-05 1.17652E-03-6.39604E-05
 -1       214 3.10336E-07 8.64788E-04-1.73784E-08
 -1       215-1.48687E-05 4.87043E-04 1.14400E-04
 -1       216-3.81344E-07 4.97651E-04 8.25897E-08
 -1       217 1.52325E-05 4.87759E-04-1.14405E-04
 -1       218-6.88986E-08 1.89463E-04 3.33864E-08
 -1       250 6.97348E-08 1.17593E-03-6.36170E-05
 -1       251-7.20168E-07 7.42845E-04 1.15575E-07
 -1       252 4.38908E-08 9.49074E-04-5.79044E-07
 -1       253 7.68586E-07 7.42770E-04 1.47618E-07
 -1       254 8.37246E-09 1.17299E-03 6.30059E-05
 -1       255 1.22415E-08 8.45773E-04-1.34089E-07
 -1       256 2.06086E-08 4.81191E-04-1.27336E-04
 -1       257 1.34163E-07 5.61942E-04-7.47365E-08
 -1       258 1.89680E-08 4.99070E-04 4.67463E-08
 -1       259-1.10332E-07 5.61923E-04-7.35844E-08
 -1       260 1.20833E-08 4.81836E-04 1.27356E-04
 -1       261 2.27984E-09 2.14098E-04 1.35420E-08
 -3
    1PSTEP                         5           5           1          
  100CL  105 5.00000E-02          81                     1    5           1
 -4  DISP        4    1
 -5  D1          1    2    1    0
 -5  D2          1    2    2    0
 -5  D3          1    2    3    0
 -5  ALL         1    2    0    0    1ALL
 -1         5 0.00000E+00 0.00000E+00 0.00000E+00
 -1         6 0.00000E+00 0.00000E+00 0.00000E+00
 -1         7 0.00000E+00 0.00000E+00 0.00000E+00
 -1         8 0.00000E+00 0.00000E+00 0.00000E+00
 -1        21 0.00000E+00 0.00000E+00 0.00000E+00
 -1        22 0.00000E+00 0.00000E+00 0.00000E+00
 -1        23 0.00000E+00 0.00000E+00 0.00000E+00
 -1        24 0.00000E+00 0.00000E+00 0.00000E+00
 -1        25 0.00000E+00 0.00000E+00 0.00000E+00
 -1        26 0.00000E+00 0.00000E+00 0.00000E+00
 -1        27 0.00000E+00 0.00000E+00 0.00000E+00
 -1        28 0.00000E+00 0.00000E+00 0.00000E+00
 -1        29 0.00000E+00 0.00000E+00 0.00000E+00
 -1        30 0.00000E+00 0.00000E+00 0.00000E+00
 -1        31 0.00000E+00 0.00000E+00 0.00000E+00
 -1        32 0.00000E+00 0.00000E+00 0.00000E+00
 -1        44 6.69118E-05-7.46612E-04 1.08423E-04
 -1        45 1.59922E-05-5.78936E-04 1.74568E-04
 -1        46-1.89133E-05-4.23925E-04 2.00661E-04
 -1        47 2.52448E-05-1.71363E-04 1.31506E-04
 -1        48-2.52443E-05-1.71367E-04 1.31513E-04
 -1        49 1.89455E-05-4.23903E-04 2.00657E-04
 -1        50-1.59899E-05-5.78962E-04 1.74570E-04
 -1        51-6.68562E-05-7.46587E-04 1.08393E-04
 -1        74-6.25680E-05-7.52205E-04-1.08572E-04
 -1        75-1.32682E-05-5.81545E-04-1.74647E-04
 -1        76 1.76001E-05-4.22789E-04-2.00701E-04
 -1        77-2.59765E-05-1.70567E-04-1.31520E-04
 -1        89 6.26616E-05-7.52109E-04-1.08585E-04
 -1        90 1.32820E-05-5.81579E-04-1.74671E-04
 -1        91-1.75873E-05-4.22770E-04-2.00710E-04
 -1        92 2.59804E-05-1.70571E-04-1.31531E-04
 -1        98 0.00000E+00 0.00000E+00 0.00000E+00
 -1        99 0.00000E+00 0.00000E+00 0.00000E+00
 -1       100 0.00000E+00 0.00000E+00 0.00000E+00
 -1       101 0.00000E+00 0.00000E+00 0.00000E+00
 -1       102 0.00000E+00 0.00000E+00 0.00000E+00
 -1       124-1.67711E-06-6.85521E-04 1.01868E-04
 -1       125-2.57044E-08-8.19077E-04 1.07131E-04
 -1       126 1.67905E-06-6.85534E-04 1.01852E-04
 -1       127 1.80701E-08-6.02918E-04 1.93649E-04
 -1       128 1.64124E-06-4.45086E-04 2.14721E-04
 -1       129-6.12328E-10-4.12754E-04 2.18475E-04
 -1       130-1.62573E-06-4.45096E-04 2.14729E-04
 -1       131 3.81880E-09-1.74404E-04 1.28093E-04
 -1       153-5.53800E-05-8.84512E-04 4.77482E-05
 -1       154 7.42236E-07-7.77525E-04 5.20004E-08
 -1       155 5.39842E-05-8.88683E-04-4.78931E-05
 -1       156-2.18733E-07-6.52185E-04-1.04156E-07
 -1       157 1.07917E-05-3.67559E-04 8.63771E-05
 -1       158-1.73131E-08-3.74825E-04-1.67264E-07
 -1       159-1.05126E-05-3.66690E-04-8.64109E-05
 -1       160 6.60443E-08-1.43471E-04-3.29027E-08
 -1       182 1.55066E-06-6.83840E-04-1.02102E-04
 -1       183 4.12133E-08-8.21459E-04-1.07113E-04
 -1       184-1.46990E-06-6.83797E-04-1.02090E-04
 -1       185 8.09737E-09-6.03196E-04-1.92904E-04
 -1       186 7.70474E-07-4.45573E-04-2.14856E-04
 -1       187 5.55891E-09-4.12258E-04-2.18484E-04
 -1       188-7.57573E-07-4.45561E-04-2.14866E-04
 -1       189 1.28588E-09-1.74311E-04-1.28130E-04
 -1       211-5.39707E-05-8.88679E-04-4.79283E-05
 -1       212-8.32532E-07-7.77608E-04 1.27058E-07
 -1       213 5.53453E-05-8.84540E-04 4.78058E-05
 -1       214 2.71050E-07-6.52154E-04-9.58434E-08
 -1       215 1.05093E-05-3.66695E-04-8.64088E-05
 -1       216 3.08795E-10-3.74856E-04-1.81155E-07
 -1       217-1.07804E-05-3.67564E-04 8.63617E-05
 -1       218-5.77238E-08-1.43468E-04-4.70887E-08
 -1       250 2.59124E-09-8.87377E-04 4.79892E-05
 -1       251 7.55053E-07-5.60897E-04 2.13891E-07
 -1       252 3.31073E-08-7.17346E-04 7.54957E-07
 -1       253-7.60699E-07-5.60845E-04 2.44097E-07
 -1       254 3.85078E-08-8.85576E-04-4.78628E-05
 -1       255-2.87391E-09-6.36304E-04 4.00721E-08
 -1       256 9.01762E-09-3.63762E-04 9.58559E-05
 -1       257-2.36825E-07-4.23409E-04 1.43758E-08
 -1       258 1.83091E-08-3.77906E-04-5.07207E-08
 -1       259 2.46081E-07-4.23396E-04 5.65803E-09
 -1       260 1.18025E-08-3.64164E-04-9.58690E-05
 -1       261 1.62166E-11-1.61681E-04-4.10229E-08
 -3
    1PSTEP                         6           6           1          
  100CL  106 6.00000E-02          81                     1    6           1
 -4  DISP        4    1
 -5  D1          1    2    1    0
 -5  D2          1    2    2    0
 -5  D3          1    2    3    0
 -5  ALL         1    2    0    0    1ALL
 -1         5 0.00000E+00 0.00000E+00 0.00000E+00
 -1         6 0.00000E+00 0.00000E+00 0.00000E+00
 -1         7 0.00000E+00 0.00000E+00 0.00000E+00
 -1         8 0.00000E+00 0.00000E+00 0.00000E+00
 -1        21 0.00000E+00 0.00000E+00 0.00000E+00
 -1        22 0.00000E+00 0.00000E+00 0.00000E+00
 -1        23 0.00000E+00 0.00000E+00 0.00000E+00
 -1        24 0.00000E+00 0.00000E+00 0.00000E+00
 -1        25 0.00000E+00 0.00000E+00 0.00000E+00
 -1        26 0.00000E+00 0.00000E+00 0.00000E+00
 -1        27 0.00000E+00 0.00000E+00 0.00000E+00
 -1        28 0.00000E+00 0.00000E+00 0.00000E+00
 -1        29 0.00000E+00 0.00000E+00 0.00000E+00
 -1        30 0.00000E+00 0.00000E+00 0.00000E+00
 -1        31 0.00000E+00 0.00000E+00 0.00000E+00
 -1        32 0.00000E+00 0.00000E+00 0.00000E+00
 -1        44-5.18543E-05 5.42190E-04-7.83437E-05
 -1        45-1.16933E-05 4.21381E-04-1.27159E-04
 -1        46 1.37423E-05 3.06906E-04-1.45272E-04
 -1        47-1.81289E-05 1.24534E-04-9.57334E-05