
 displacements (vx,vy,vz) for set NALL and time  0.1000000E-01

         5  0.000000E+00  0.000000E+00  0.000000E+00
         6  0.000000E+00  0.000000E+00  0.000000E+00
         7  0.000000E+00  0.000000E+00  0.000000E+00
         8  0.000000E+00  0.000000E+00  0.000000E+00
        21  0.000000E+00  0.000000E+00  0.000000E+00
        22  0.000000E+00  0.000000E+00  0.000000E+00
        23  0.000000E+00  0.000000E+00  0.000000E+00
        24  0.000000E+00  0.000000E+00  0.000000E+00
        25  0.000000E+00  0.000000E+00  0.000000E+00
        26  0.000000E+00  0.000000E+00  0.000000E+00
        27  0.000000E+00  0.000000E+00  0.000000E+00
        28  0.000000E+00  0.000000E+00  0.000000E+00
        29  0.000000E+00  0.000000E+00  0.000000E+00
        30  0.000000E+00  0.000000E+00  0.000000E+00
        31  0.000000E+00  0.000000E+00  0.000000E+00
        32  0.000000E+00  0.000000E+00  0.000000E+00
        44  5.965078E-05 -1.996087E-03  2.771340E-04
        45  7.948239E-06 -1.520409E-03  4.881403E-04
        46 -3.663628E-05 -1.106719E-03  5.130126E-04
        47  6.470258E-05 -4.611335E-04  3.449257E-04
        48 -6.470263E-05 -4.611335E-04  3.449258E-04
        49  3.663674E-05 -1.106718E-03  5.130127E-04
        50 -7.948577E-06 -1.520410E-03  4.881386E-04
        51 -5.964719E-05 -1.996083E-03  2.771281E-04
        74 -5.143965E-05 -2.027470E-03 -2.807258E-04
        75 -2.374638E-06 -1.532046E-03 -4.902823E-04
        76  3.218128E-05 -1.104143E-03 -5.143511E-04
        77 -6.788372E-05 -4.550250E-04 -3.457392E-04
        89  5.143625E-05 -2.027467E-03 -2.807199E-04
        90  2.375080E-06 -1.532047E-03 -4.902806E-04
        91 -3.218171E-05 -1.104143E-03 -5.143512E-04
        92  6.788377E-05 -4.550251E-04 -3.457394E-04
        98  0.000000E+00  0.000000E+00  0.000000E+00
        99  0.000000E+00  0.000000E+00  0.000000E+00
       100  0.000000E+00  0.000000E+00  0.000000E+00
       101  0.000000E+00  0.000000E+00  0.000000E+00
       102  0.000000E+00  0.000000E+00  0.000000E+00
       124 -6.121922E-06 -1.809186E-03  2.631267E-04
       125  7.136424E-10 -2.011255E-03  2.790528E-04
       126  6.124157E-06 -1.809188E-03  2.631290E-04
       127 -1.213566E-10 -1.534703E-03  4.551762E-04
       128  1.548873E-05 -1.153815E-03  5.503913E-04
       129  3.854008E-11 -1.098829E-03  5.629086E-04
       130 -1.548845E-05 -1.153815E-03  5.503915E-04
       131  1.533756E-11 -4.600936E-04  3.295179E-04
       153 -1.013963E-04 -2.406582E-03  1.267882E-04
       154 -2.914121E-06 -2.146490E-03 -9.295379E-07
       155  1.015537E-04 -2.416910E-03 -1.310939E-04
       156 -1.988990E-06 -1.588831E-03 -2.830424E-06
       157  1.473339E-05 -1.007812E-03  2.162468E-04
       158  3.056139E-06 -1.084584E-03 -3.956109E-07
       159 -1.147509E-05 -1.008562E-03 -2.166222E-04
       160  1.310210E-06 -3.910749E-04  7.688033E-07
       182 -6.697046E-06 -1.796365E-03 -2.647007E-04
       183 -6.308833E-10 -2.037746E-03 -2.806033E-04
       184  6.695030E-06 -1.796363E-03 -2.646984E-04
       185  1.522913E-10 -1.549168E-03 -4.553116E-04
       186  1.459433E-05 -1.168046E-03 -5.542724E-04
       187 -6.558151E-12 -1.110288E-03 -5.675460E-04
       188 -1.459457E-05 -1.168046E-03 -5.542723E-04
       189 -6.675550E-12 -4.620152E-04 -3.312576E-04
       211 -1.015558E-04 -2.416907E-03 -1.310916E-04
       212  2.914254E-06 -2.146489E-03 -9.295478E-07
       213  1.013984E-04 -2.406580E-03  1.267859E-04
       214  1.989074E-06 -1.588832E-03 -2.830438E-06
       215  1.147498E-05 -1.008562E-03 -2.166220E-04
       216 -3.056152E-06 -1.084584E-03 -3.956341E-07
       217 -1.473323E-05 -1.007812E-03  2.162466E-04
       218 -1.310214E-06 -3.910749E-04  7.687912E-07
       250  6.021359E-10 -2.032888E-03  1.104768E-04
       251 -4.165337E-07 -1.524805E-03  3.352261E-06
       252  2.223877E-11 -1.541509E-03  1.231139E-06
       253  4.165807E-07 -1.524806E-03  3.352273E-06
       254 -5.225626E-10 -2.049002E-03 -1.232012E-04
       255  1.593693E-11 -1.694619E-03 -1.114687E-06
       256 -4.102273E-11 -9.479590E-04  2.520609E-04
       257 -1.548012E-06 -1.092003E-03 -1.289332E-06
       258  1.200856E-11 -9.359754E-04 -1.118078E-06
       259  1.548027E-06 -1.092003E-03 -1.289320E-06
       260  6.393735E-11 -9.524600E-04 -2.523097E-04
       261  3.590830E-12 -4.352989E-04  8.275350E-08

 forces (fx,fy,fz) for set NALL and time  0.1000000E-01

         5  8.377421E-01 -1.313555E+00 -9.273393E-01
         6 -8.377441E-01 -1.313553E+00 -9.273456E-01
         7  8.918416E-01 -1.156312E+00  9.253164E-01
         8 -8.918401E-01 -1.156313E+00  9.253102E-01
        21  5.244935E-01  3.180544E+00 -1.108628E+01
        22  2.051233E-06 -5.344803E-01 -2.069452E+00
        23 -5.244920E-01  3.180552E+00 -1.108628E+01
        24 -2.181853E+00  7.404887E+00 -5.536242E+00
        25  4.491540E-02 -3.484018E+00 -8.632774E-03
        26  2.118233E+00  7.362838E+00  5.576845E+00
        27  5.133857E-01  2.973606E+00  1.104385E+01
        28 -2.166205E-06 -3.135652E-01  2.070270E+00
        29 -5.133870E-01  2.973597E+00  1.104385E+01
        30 -2.118224E+00  7.362839E+00  5.576849E+00
        31 -4.491636E-02 -3.484014E+00 -8.632583E-03
        32  2.181846E+00  7.404889E+00 -5.536246E+00
        44  1.413422E-01  2.267669E+01  1.084688E+00
        45 -1.780479E-06 -6.080691E-01  1.525512E-01
        46  1.359718E-06  1.541496E+00 -4.634069E-01
        47 -4.749072E-07 -1.167017E+00  5.403022E-01
        48  5.250253E-07 -1.167017E+00  5.403023E-01
        49 -1.222698E-06  1.541496E+00 -4.634069E-01
        50  1.330382E-06 -6.080697E-01  1.525511E-01
        51 -1.413269E-01  2.267670E+01  1.084667E+00
        74 -3.878300E-01  2.181299E+01 -1.012904E+00
        75  1.585427E-07 -6.080905E-01 -1.525442E-01
        76 -4.080368E-07  1.541511E+00  4.634049E-01
        77  1.004604E-06 -1.167020E+00 -5.403012E-01
        89  3.878194E-01  2.181300E+01 -1.012883E+00
        90 -8.696733E-07 -6.080895E-01 -1.525442E-01
        91  5.308386E-07  1.541511E+00  4.634049E-01
        92 -8.559033E-07 -1.167021E+00 -5.403012E-01
        98  1.589300E-06  1.345706E+01 -1.003952E+01
        99  3.307720E-02 -2.555948E+00 -6.041657E-03
       100 -6.437375E-07 -8.117625E+00 -1.918205E-02
       101 -3.307618E-02 -2.555951E+00 -6.041665E-03
       102 -1.810453E-06  1.358885E+01  1.009891E+01
       124 -2.711942E+00  1.251560E+01 -8.061062E-01
       125  7.426338E-06  3.934427E+01  2.160631E+00
       126  2.711939E+00  1.251559E+01 -8.060933E-01
       127  1.143281E-07 -1.216138E+00  3.051001E-01
       128  1.141869E-06 -2.615808E+00  9.358554E-01
       129 -5.509480E-08  3.082992E+00 -9.268130E-01
       130 -1.251167E-06 -2.615807E+00  9.358551E-01
       131  1.381363E-07 -2.334034E+00  1.080604E+00
       153 -1.870891E+00 -6.540302E+01 -1.693157E+00
       154 -1.931975E-01  4.518268E+01  6.773204E-02
       155  2.346085E+00 -6.516194E+01  1.445879E+00
       156 -2.930422E-06 -1.216157E+00 -6.201056E-06
       157 -1.899623E-06 -2.615810E+00  7.018891E-01
       158  1.449604E-06  3.083007E+00  2.902970E-06
       159 -3.781516E-08 -2.615825E+00 -7.018898E-01
       160 -2.976348E-07 -2.334038E+00 -8.446981E-07
       182 -2.768471E+00  1.401744E+01  8.573484E-01
       183 -5.957838E-06  3.804316E+01 -1.913689E+00
       184  2.768473E+00  1.401746E+01  8.573608E-01
       185  3.173579E-07 -1.742499E+00 -3.050870E-01
       186  6.263949E-07 -3.142145E+00 -9.358487E-01
       187 -1.176032E-07  2.556708E+00  9.268100E-01
       188 -7.229951E-07 -3.142145E+00 -9.358486E-01
       189  1.029514E-07 -2.860359E+00 -1.080601E+00
       211 -2.346106E+00 -6.516195E+01  1.445892E+00
       212  1.932057E-01  4.518270E+01  6.773234E-02
       213  1.870904E+00 -6.540303E+01 -1.693170E+00
       214  2.322915E-06 -1.216158E+00 -5.743846E-06
       215 -3.826470E-07 -2.615825E+00 -7.018899E-01
       216 -1.162924E-06  3.083007E+00  2.677824E-06
       217  1.560894E-06 -2.615810E+00  7.018892E-01
       218  1.533499E-07 -2.334038E+00 -1.144624E-06
       250  6.136663E-06 -1.100183E+02 -3.739322E+00
       251 -7.205071E-02  4.158629E+01  3.862000E-01
       252  4.855686E-06  9.411650E+01  3.037287E-01
       253  7.204191E-02  4.158628E+01  3.862006E-01
       254 -6.143495E-06 -1.106212E+02  2.525301E+00
       255  8.217769E-07 -2.432317E+00 -1.518435E-05
       256  2.152210E-07 -5.231619E+00  1.403776E+00
       257  1.809451E-06 -5.231635E+00 -6.650290E-06
       258 -1.664802E-07  6.166016E+00  5.973322E-06
       259 -1.731045E-06 -5.231635E+00 -6.743451E-06
       260  4.177713E-07 -5.231653E+00 -1.403779E+00
       261 -1.160656E-07 -4.668078E+00 -2.329103E-06

 displacements (vx,vy,vz) for set NALL and time  0.2000000E-01

         5  0.000000E+00  0.000000E+00  0.000000E+00
         6  0.000000E+00  0.000000E+00  0.000000E+00
         7  0.000000E+00  0.000000E+00  0.000000E+00
         8  0.000000E+00  0.000000E+00  0.000000E+00
        21  0.000000E+00  0.000000E+00  0.000000E+00
        22  0.000000E+00  0.000000E+00  0.000000E+00
        23  0.000000E+00  0.000000E+00  0.000000E+00
        24  0.000000E+00  0.000000E+00  0.000000E+00
        25  0.000000E+00  0.000000E+00  0.000000E+00
        26  0.000000E+00  0.000000E+00  0.000000E+00
        27  0.000000E+00  0.000000E+00  0.000000E+00
        28  0.000000E+00  0.000000E+00  0.000000E+00
        29  0.000000E+00  0.000000E+00  0.000000E+00
        30  0.000000E+00  0.000000E+00  0.000000E+00
        31  0.000000E+00  0.000000E+00  0.000000E+00
        32  0.000000E+00  0.000000E+00  0.000000E+00
        44 -1.483606E-04  1.639639E-03 -2.396136E-04
        45 -2.751112E-05  1.225487E-03 -4.191263E-04
        46  3.131833E-05  9.400770E-04 -4.438295E-04
        47 -4.694881E-05  3.799844E-04 -2.840257E-04
        48  4.694824E-05  3.799838E-04 -2.840239E-04
        49 -3.131371E-05  9.400816E-04 -4.438280E-04
        50  2.750676E-05  1.225483E-03 -4.191408E-04
        51  1.483925E-04  1.639671E-03 -2.396664E-04
        74  1.408651E-04  1.664553E-03  2.378880E-04
        75  2.159541E-05  1.236926E-03  4.183543E-04
        76 -2.783564E-05  9.335232E-04  4.437005E-04
        77  4.883595E-05  3.760291E-04  2.842462E-04
        89 -1.408971E-04  1.664585E-03  2.379407E-04
        90 -2.159113E-05  1.236921E-03  4.183688E-04
        91  2.783100E-05  9.335278E-04  4.436990E-04
        92 -4.883538E-05  3.760285E-04  2.842444E-04
        98  0.000000E+00  0.000000E+00  0.000000E+00
        99  0.000000E+00  0.000000E+00  0.000000E+00
       100  0.000000E+00  0.000000E+00  0.000000E+00
       101  0.000000E+00  0.000000E+00  0.000000E+00
       102  0.000000E+00  0.000000E+00  0.000000E+00
       124  7.472128E-05  1.509020E-03 -2.336389E-04
       125  4.232149E-09  1.681098E-03 -2.258239E-04
       126 -7.470374E-05  1.509002E-03 -2.336206E-04
       127 -6.620345E-10  1.286874E-03 -3.778545E-04
       128 -1.848561E-05  9.607453E-04 -4.640384E-04
       129 -2.457273E-10  8.980487E-04 -4.724660E-04
       130  1.848781E-05  9.607436E-04 -4.640366E-04
       131  1.504597E-10  3.772869E-04 -2.772038E-04
       153  8.182061E-05  1.991940E-03 -1.130844E-04
       154  4.296448E-06  1.705951E-03  1.129766E-07
       155 -8.206624E-05  1.998496E-03  1.139189E-04
       156  3.053868E-06  1.326071E-03  1.237013E-06
       157 -2.163827E-05  8.237006E-04 -1.882232E-04
       158 -2.236117E-06  8.739471E-04  1.557790E-07
       159  2.126584E-05  8.219901E-04  1.876647E-04
       160 -8.310648E-07  3.248599E-04 -8.778995E-08
       182  7.605201E-05  1.494773E-03  2.311368E-04
       183 -4.301812E-09  1.697983E-03  2.235391E-04
       184 -7.606974E-05  1.494791E-03  2.311552E-04
       185  6.398279E-10  1.295166E-03  3.759555E-04
       186 -1.800194E-05  9.640246E-04  4.654758E-04
       187  2.175039E-10  8.938522E-04  4.739749E-04
       188  1.799972E-05  9.640262E-04  4.654776E-04
       189 -1.574557E-10  3.752697E-04  2.775523E-04
       211  8.204801E-05  1.998514E-03  1.139373E-04
       212 -4.296554E-06  1.705960E-03  1.129764E-07
       213 -8.180240E-05  1.991957E-03 -1.131028E-04
       214 -3.053941E-06  1.326070E-03  1.237023E-06
       215 -2.126752E-05  8.219923E-04  1.876665E-04
       216  2.236133E-06  8.739466E-04  1.557976E-07
       217  2.163992E-05  8.237028E-04 -1.882250E-04
       218  8.310695E-07  3.248602E-04 -8.778099E-08
       250  3.942117E-09  1.750251E-03 -8.683198E-05
       251 -6.942356E-07  1.238862E-03 -1.986657E-06
       252 -1.525499E-11  1.373630E-03 -1.758696E-07
       253  6.942047E-07  1.238854E-03 -1.986664E-06
       254 -4.007610E-09  1.759461E-03  9.270657E-05
       255 -1.179436E-11  1.412278E-03  1.189291E-07
       256 -6.547450E-10  7.781579E-04 -2.113219E-04
       257  7.522154E-07  9.022166E-04  3.687704E-07
       258 -9.550884E-12  7.769192E-04  1.991968E-07
       259 -7.522259E-07  9.022178E-04  3.687608E-07
       260  6.360275E-10  7.757702E-04  2.106669E-04
       261 -3.108566E-12  3.487725E-04  3.295707E-07

 forces (fx,fy,fz) for set NALL and time  0.2000000E-01

         5 -6.592245E-01  1.254956E+00  6.863093E-01
         6  6.591994E-01  1.254981E+00  6.862400E-01
         7 -6.899731E-01  1.126175E+00 -6.818006E-01
         8  6.899986E-01  1.126150E+00 -6.818700E-01
        21 -8.654622E-01 -2.441828E+00  9.204824E+00
        22  2.278796E-05  8.135081E-01  1.489274E+00
        23  8.654737E-01 -2.441746E+00  9.204867E+00
        24  1.576445E+00 -6.982584E+00  4.664549E+00
        25 -3.225993E-02  3.756206E+00  1.366668E-02
        26 -1.504440E+00 -6.911566E+00 -4.708229E+00
        27 -8.876666E-01 -2.262666E+00 -9.177638E+00
        28 -2.268074E-05  6.378678E-01 -1.477907E+00
        29  8.876549E-01 -2.262746E+00 -9.177595E+00
        30  1.504520E+00 -6.911555E+00 -4.708186E+00
        31  3.226080E-02  3.756251E+00  1.366647E-02
        32 -1.576526E+00 -6.982572E+00  4.664505E+00
        44  1.958489E-01 -2.080504E+01 -4.002914E-01
        45  1.524131E-06  5.208624E-01 -1.306730E-01
        46 -1.164882E-06 -1.320421E+00  3.969471E-01
        47  4.081755E-07  9.996487E-01 -4.628144E-01
        48 -4.511059E-07  9.996484E-01 -4.628145E-01
        49  1.047513E-06 -1.320422E+00  3.969471E-01
        50 -1.138585E-06  5.208629E-01 -1.306729E-01
        51 -1.957107E-01 -2.080491E+01 -4.005276E-01
        74 -1.109586E-02 -1.991815E+01  3.586351E-01
        75 -1.347439E-07  5.208807E-01  1.306670E-01
        76  3.496274E-07 -1.320435E+00 -3.969454E-01
        77 -8.619046E-07  9.996514E-01  4.628136E-01
        89  1.095319E-02 -1.991801E+01  3.588713E-01
        90  7.438872E-07  5.208799E-01  1.306670E-01
        91 -4.548175E-07 -1.320434E+00 -3.969454E-01
        92  7.345298E-07  9.996518E-01  4.628136E-01
        98  3.188405E-05 -1.187698E+01  8.443570E+00
        99 -3.937447E-03  2.831695E+00  8.666688E-03
       100  5.866722E-07  6.643508E+00  3.721009E-02
       101  3.936501E-03  2.831632E+00  8.666682E-03
       102 -3.168558E-05 -1.187827E+01 -8.529679E+00
       124  5.329395E+00 -1.144917E+01 -3.379495E-01
       125  5.559586E-05 -3.484325E+01 -7.037092E-01
       126 -5.329440E+00 -1.144931E+01 -3.379123E-01
       127 -9.793170E-08  1.041725E+00 -2.613440E-01
       128 -9.784073E-07  2.240660E+00 -8.016390E-01
       129  4.719332E-08 -2.640843E+00  7.938935E-01
       130  1.072030E-06  2.240660E+00 -8.016388E-01
       131 -1.183254E-07  1.999297E+00 -9.256283E-01
       153  2.682761E+00  6.014287E+01  7.536552E-01
       154  1.719443E-01 -4.308192E+01 -3.624808E-02
       155 -3.162668E+00  5.964765E+01 -6.161349E-01
       156  2.510158E-06  1.041741E+00  5.311600E-06
       157  1.627522E-06  2.240662E+00 -6.012272E-01
       158 -1.241749E-06 -2.640856E+00 -2.486547E-06
       159  3.215817E-08  2.240675E+00  6.012278E-01
       160  2.549995E-07  1.999301E+00  7.235657E-07
       182  5.524128E+00 -1.275513E+01  2.834155E-01
       183 -5.703404E-05 -3.345803E+01  5.750814E-01
       184 -5.524083E+00 -1.275500E+01  2.834531E-01
       185 -2.718438E-07  1.069464E+00  2.613328E-01
       186 -5.368026E-07  2.268379E+00  8.016334E-01
       187  1.007371E-07 -2.613169E+00 -7.938910E-01
       188  6.195488E-07  2.268379E+00  8.016333E-01
       189 -8.818654E-08  2.027006E+00  9.256261E-01
       211  3.162533E+00  5.964760E+01 -6.160970E-01
       212 -1.719519E-01 -4.308181E+01 -3.624825E-02
       213 -2.682617E+00  6.014283E+01  7.536174E-01
       214 -1.989777E-06  1.041741E+00  4.919961E-06
       215  3.280032E-07  2.240675E+00  6.012279E-01
       216  9.961823E-07 -2.640856E+00 -2.293690E-06
       217 -1.337372E-06  2.240662E+00 -6.012273E-01
       218 -1.314073E-07  1.999301E+00  9.804773E-07
       250  1.484931E-05  9.832464E+01  3.502857E+00
       251 -1.572051E-02 -3.795492E+01 -2.097663E-01
       252 -4.529163E-06 -8.012209E+01 -1.256025E-01
       253  1.572870E-02 -3.795495E+01 -2.097667E-01
       254 -1.477659E-05  9.817500E+01 -2.822443E+00
       255 -7.039212E-07  2.083484E+00  1.300641E-05
       256 -1.843549E-07  4.481323E+00 -1.202452E+00
       257 -1.550043E-06  4.481336E+00  5.696415E-06
       258  1.426043E-07 -5.281712E+00 -5.116456E-06
       259  1.482882E-06  4.481336E+00  5.776216E-06
       260 -3.578564E-07  4.481352E+00  1.202455E+00
       261  9.941995E-08  3.998602E+00  1.995084E-06

 displacements (vx,vy,vz) for set NALL and time  0.3000000E-01

         5  0.000000E+00  0.000000E+00  0.000000E+00
         6  0.000000E+00  0.000000E+00  0.000000E+00
         7  0.000000E+00  0.000000E+00  0.000000E+00
         8  0.000000E+00  0.000000E+00  0.000000E+00
        21  0.000000E+00  0.000000E+00  0.000000E+00
        22  0.000000E+00  0.000000E+00  0.000000E+00
        23  0.000000E+00  0.000000E+00  0.000000E+00
        24  0.000000E+00  0.000000E+00  0.000000E+00
        25  0.000000E+00  0.000000E+00  0.000000E+00
        26  0.000000E+00  0.000000E+00  0.000000E+00
        27  0.000000E+00  0.000000E+00  0.000000E+00
        28  0.000000E+00  0.000000E+00  0.000000E+00
        29  0.000000E+00  0.000000E+00  0.000000E+00
        30  0.000000E+00  0.000000E+00  0.000000E+00
        31  0.000000E+00  0.000000E+00  0.000000E+00
        32  0.000000E+00  0.000000E+00  0.000000E+00
        44  4.149947E-05 -1.381524E-03  1.935403E-04
        45  1.765445E-05 -1.042427E-03  3.444693E-04
        46 -2.333476E-05 -7.499206E-04  3.713922E-04
        47  4.352493E-05 -3.077560E-04  2.404728E-04
        48 -4.352711E-05 -3.077581E-04  2.404794E-04
        49  2.335254E-05 -7.499028E-04  3.713978E-04
        50 -1.767093E-05 -1.042443E-03  3.444125E-04
        51 -4.137515E-05 -1.381400E-03  1.933348E-04
        74 -4.116297E-05 -1.406806E-03 -2.023811E-04
        75 -1.166107E-05 -1.050510E-03 -3.458325E-04
        76  1.911450E-05 -7.456723E-04 -3.713078E-04
        77 -4.498388E-05 -3.044323E-04 -2.406786E-04
        89  4.103877E-05 -1.406682E-03 -2.021756E-04
        90  1.167761E-05 -1.050527E-03 -3.457757E-04
        91 -1.913227E-05 -7.456545E-04 -3.713134E-04
        92  4.498606E-05 -3.044344E-04 -2.406853E-04
        98  0.000000E+00  0.000000E+00  0.000000E+00
        99  0.000000E+00  0.000000E+00  0.000000E+00
       100  0.000000E+00  0.000000E+00  0.000000E+00
       101  0.000000E+00  0.000000E+00  0.000000E+00
       102  0.000000E+00  0.000000E+00  0.000000E+00
       124 -1.035436E-05 -1.251051E-03  2.109030E-04
       125  1.731302E-08 -1.378966E-03  1.795308E-04
       126  1.042361E-05 -1.251122E-03  2.109753E-04
       127 -2.750193E-09 -1.067559E-03  3.226543E-04
       128  1.132932E-05 -7.776453E-04  3.831831E-04
       129 -7.223130E-10 -7.353813E-04  3.963831E-04
       130 -1.132064E-05 -7.776516E-04  3.831899E-04
       131  5.809271E-10 -3.084597E-04  2.318667E-04
       153 -7.545951E-05 -1.663740E-03  1.049069E-04
       154 -2.716872E-06 -1.479037E-03  1.924684E-07
       155  7.237802E-05 -1.671664E-03 -1.090522E-04
       156 -2.026789E-06 -1.087143E-03 -1.140234E-06
       157  1.218101E-05 -6.780838E-04  1.557300E-04
       158  1.672199E-06 -7.288011E-04 -1.045716E-07
       159 -1.244771E-05 -6.770771E-04 -1.555887E-04
       160  3.988716E-07 -2.596923E-04  8.743109E-08
       182 -1.321577E-05 -1.242788E-03 -2.117641E-04
       183 -1.726290E-08 -1.393571E-03 -1.775687E-04
       184  1.314665E-05 -1.242717E-03 -2.116918E-04
       185  2.772166E-09 -1.074114E-03 -3.221095E-04
       186  9.986831E-06 -7.806533E-04 -3.853336E-04
       187  7.386120E-10 -7.315275E-04 -3.985209E-04
       188 -9.995494E-06 -7.806470E-04 -3.853267E-04
       189 -5.752922E-10 -3.067199E-04 -2.320957E-04
       211 -7.244900E-05 -1.671595E-03 -1.089798E-04
       212  2.716979E-06 -1.479002E-03  1.924454E-07
       213  7.553053E-05 -1.663670E-03  1.048345E-04
       214  2.026840E-06 -1.087148E-03 -1.140245E-06
       215  1.244142E-05 -6.770685E-04 -1.555819E-04
       216 -1.672206E-06 -7.288025E-04 -1.045858E-07
       217 -1.217469E-05 -6.780751E-04  1.557232E-04
       218 -3.988762E-07 -2.596912E-04  8.742305E-08
       250  1.591119E-08 -1.426842E-03  8.275721E-05
       251  2.067134E-07 -1.082484E-03  2.569643E-06
       252  1.288315E-11 -1.126139E-03  1.187994E-06
       253 -2.066779E-07 -1.082516E-03  2.569652E-06
       254 -1.586421E-08 -1.435813E-03 -8.857174E-05
       255  1.064767E-11 -1.156182E-03  3.531627E-07
       256 -2.438019E-09 -6.413904E-04  1.759502E-04
       257 -5.485101E-07 -7.420311E-04 -5.683255E-07
       258  6.492600E-12 -6.412207E-04 -4.971163E-07
       259  5.485199E-07 -7.420263E-04 -5.683163E-07
       260  2.449711E-09 -6.389172E-04 -1.756574E-04
       261  1.943556E-12 -2.860835E-04 -4.753126E-07

 forces (fx,fy,fz) for set NALL and time  0.3000000E-01

         5  5.602368E-01 -8.553929E-01 -4.283828E-01
         6 -5.603318E-01 -8.552979E-01 -4.286478E-01
         7  5.990389E-01 -7.505915E-01  4.309519E-01
         8 -5.989443E-01 -7.506860E-01  4.306870E-01
        21  4.464166E-01  1.893843E+00 -7.659000E+00
        22  8.699780E-05 -3.779641E-01 -9.633976E-01
        23 -4.463711E-01  1.894154E+00 -7.658833E+00
        24 -1.348998E+00  4.965786E+00 -3.946479E+00
        25  2.293273E-02 -2.338004E+00 -3.215327E-03
        26  1.304753E+00  4.926290E+00  3.991237E+00
        27  4.469914E-01  1.754421E+00  7.627452E+00
        28 -8.705584E-05 -2.696148E-01  9.577389E-01
        29 -4.470367E-01  1.754109E+00  7.627619E+00
        30 -1.304441E+00  4.926335E+00  3.991404E+00
        31 -2.293345E-02 -2.337830E+00 -3.215192E-03
        32  1.348687E+00  4.965831E+00 -3.946647E+00
        44 -7.117260E-02  1.568190E+01 -2.093446E-01
        45 -1.210384E-06 -4.142535E-01  1.039271E-01
        46  9.268370E-07  1.050161E+00 -3.157010E-01
        47 -3.272768E-07 -7.950432E-01  3.680867E-01
        48  3.614204E-07 -7.950430E-01  3.680869E-01
        49 -8.334912E-07  1.050161E+00 -3.157010E-01
        50  9.037503E-07 -4.142539E-01  1.039271E-01
        51  7.171125E-02  1.568244E+01 -2.102448E-01
        74 -1.322990E-01  1.499260E+01  2.144242E-01
        75  1.052633E-07 -4.142681E-01 -1.039224E-01
        76 -2.783566E-07  1.050171E+00  3.156996E-01
        77  6.881462E-07 -7.950454E-01 -3.680861E-01
        89  1.317635E-01  1.499314E+01  2.153246E-01
        90 -5.897288E-07 -4.142675E-01 -1.039224E-01
        91  3.620166E-07  1.050171E+00  3.156996E-01
        92 -5.868421E-07 -7.950458E-01 -3.680861E-01
        98  1.173457E-04  8.837244E+00 -7.123352E+00
        99  1.121017E-02 -1.767905E+00 -1.142269E-02
       100 -4.341621E-07 -4.919410E+00 -3.277655E-02
       101 -1.120949E-02 -1.768139E+00 -1.142256E-02
       102 -1.174069E-04  8.887754E+00  7.228278E+00
       124 -2.575070E+00  8.743673E+00  1.018080E+00
       125  2.208805E-04  2.707172E+01 -6.135992E-01
       126  2.574902E+00  8.743129E+00  1.018255E+00
       127  7.788731E-08 -8.285072E-01  2.078527E-01
       128  7.787882E-07 -1.782047E+00  6.375617E-01
       129 -3.753392E-08  2.100322E+00 -6.314014E-01
       130 -8.532483E-07 -1.782047E+00  6.375615E-01
       131  9.410691E-08 -1.590086E+00  7.361732E-01
       153 -1.707408E+00 -4.514128E+01  9.771160E-03
       154 -1.453172E-01  3.160716E+01  4.066742E-02
       155  2.022559E+00 -4.484479E+01 -1.784541E-01
       156 -1.996365E-06 -8.285202E-01 -4.224234E-06
       157 -1.295099E-06 -1.782049E+00  4.781696E-01
       158  9.876386E-07  2.100332E+00  1.977462E-06
       159 -2.502816E-08 -1.782059E+00 -4.781701E-01
       160 -2.028848E-07 -1.590089E+00 -5.754801E-07
       182 -2.623883E+00  9.762330E+00 -9.712422E-01
       183 -2.199409E-04  2.606591E+01  7.553061E-01
       184  2.624050E+00  9.762880E+00 -9.710670E-01
       185  2.162036E-07 -8.299959E-01 -2.078438E-01
       186  4.274847E-07 -1.783520E+00 -6.375571E-01
       187 -8.011852E-08  2.098886E+00  6.313994E-01
       188 -4.932946E-07 -1.783520E+00 -6.375571E-01
       189  7.013675E-08 -1.591550E+00 -7.361714E-01
       211 -2.023109E+00 -4.484496E+01 -1.782776E-01
       212  1.453230E-01  3.160760E+01  4.066740E-02
       213  1.707952E+00 -4.514145E+01  9.594161E-03
       214  1.582494E-06 -8.285203E-01 -3.912754E-06
       215 -2.614163E-07 -1.782059E+00 -4.781701E-01
       216 -7.923341E-07  2.100332E+00  1.824078E-06
       217  1.064337E-06 -1.782049E+00  4.781696E-01
       218  1.045891E-07 -1.590089E+00 -7.798078E-07
       250  7.322123E-05 -7.524298E+01 -1.734440E+00
       251 -5.254783E-02  2.805321E+01  2.520387E-01
       252  3.348310E-06  6.305304E+01  1.666422E-01
       253  5.254170E-02  2.805306E+01  2.520388E-01
       254 -7.333715E-05 -7.540688E+01  1.005282E+00
       255  5.598445E-07 -1.657042E+00 -1.034387E-05
       256  1.466216E-07 -3.564098E+00  9.563375E-01
       257  1.232922E-06 -3.564108E+00 -4.530297E-06
       258 -1.134164E-07  4.200665E+00  4.068917E-06
       259 -1.179507E-06 -3.564108E+00 -4.593764E-06
       260  2.846113E-07 -3.564121E+00 -9.563395E-01
       261 -7.907095E-08 -3.180179E+00 -1.586740E-06

 displacements (vx,vy,vz) for set NALL and time  0.4000000E-01

         5  0.000000E+00  0.000000E+00  0.000000E+00
         6  0.000000E+00  0.000000E+00  0.000000E+00
         7  0.000000E+00  0.000000E+00  0.000000E+00
         8  0.000000E+00  0.000000E+00  0.000000E+00
        21  0.000000E+00  0.000000E+00  0.000000E+00
        22  0.000000E+00  0.000000E+00  0.000000E+00
        23  0.000000E+00  0.000000E+00  0.000000E+00
        24  0.000000E+00  0.000000E+00  0.000000E+00
        25  0.000000E+00  0.000000E+00  0.000000E+00
        26  0.000000E+00  0.000000E+00  0.000000E+00
        27  0.000000E+00  0.000000E+00  0.000000E+00
        28  0.000000E+00  0.000000E+00  0.000000E+00
        29  0.000000E+00  0.000000E+00  0.000000E+00
        30  0.000000E+00  0.000000E+00  0.000000E+00
        31  0.000000E+00  0.000000E+00  0.000000E+00
        32  0.000000E+00  0.000000E+00  0.000000E+00
        44 -4.870903E-05  9.925629E-04 -1.416715E-04
        45 -8.520529E-06  7.529921E-04 -2.455998E-04
        46  1.872151E-05  5.574626E-04 -2.597888E-04
        47 -3.137104E-05  2.308199E-04 -1.724810E-04
        48  3.137293E-05  2.308217E-04 -1.724867E-04
        49 -1.873698E-05  5.574472E-04 -2.597937E-04
        50  8.534822E-06  7.530064E-04 -2.455499E-04
        51  4.860020E-05  9.924543E-04 -1.414915E-04
        74  4.524085E-05  1.005961E-03  1.408219E-04
        75  5.184131E-06  7.591034E-04  2.449746E-04
        76 -1.679266E-05  5.538337E-04  2.594298E-04
        77  3.233260E-05  2.286338E-04  1.724371E-04
        89 -4.513220E-05  1.005853E-03  1.406421E-04
        90 -5.198478E-06  7.591176E-04  2.449247E-04
        91  1.680809E-05  5.538183E-04  2.594347E-04
        92 -3.233449E-05  2.286357E-04  1.724428E-04
        98  0.000000E+00  0.000000E+00  0.000000E+00
        99  0.000000E+00  0.000000E+00  0.000000E+00
       100  0.000000E+00  0.000000E+00  0.000000E+00
       101  0.000000E+00  0.000000E+00  0.000000E+00
       102  0.000000E+00  0.000000E+00  0.000000E+00
       124  1.610687E-05  9.079249E-04 -1.380900E-04
       125 -1.547143E-08  1.008995E-03 -1.423878E-04
       126 -1.616778E-05  9.079870E-04 -1.381537E-04
       127  2.503744E-09  7.701179E-04 -2.282284E-04
       128 -8.770657E-06  5.769941E-04 -2.756560E-04
       129  5.587007E-10  5.466601E-04 -2.814146E-04
       130  8.763032E-06  5.769996E-04 -2.756619E-04
       131 -4.972550E-10  2.305877E-04 -1.663159E-04
       153  4.983353E-05  1.193513E-03 -6.577000E-05
       154  2.423234E-06  1.053156E-03  1.715003E-07
       155 -4.937777E-05  1.197142E-03  6.603691E-05
       156  1.524275E-06  7.960440E-04  5.723392E-07
       157 -8.634480E-06  5.023349E-04 -1.101993E-04
       158 -1.163047E-06  5.365041E-04 -1.431804E-07
       159  8.493030E-06  5.013165E-04  1.096085E-04
       160 -4.136457E-07  1.964896E-04 -1.296406E-07
       182  1.711079E-05  8.996797E-04  1.359879E-04
       183  1.541695E-08  1.016731E-03  1.395634E-04
       184 -1.705003E-05  8.996177E-04  1.359244E-04
       185 -2.512190E-09  7.746499E-04  2.264475E-04
       186 -8.463887E-06  5.784424E-04  2.763258E-04
       187 -5.868983E-10  5.438013E-04  2.822768E-04
       188  8.471471E-06  5.784370E-04  2.763198E-04
       189  4.939260E-10  2.293085E-04  1.664534E-04
       211  4.944000E-05  1.197081E-03  6.597315E-05
       212 -2.423232E-06  1.053125E-03  1.714303E-07
       213 -4.989574E-05  1.193452E-03 -6.570626E-05
       214 -1.524329E-06  7.960490E-04  5.723392E-07
       215 -8.487591E-06  5.013088E-04  1.096026E-04
       216  1.163066E-06  5.365052E-04 -1.431660E-07
       217  8.629017E-06  5.023272E-04 -1.101934E-04
       218  4.136444E-07  1.964886E-04 -1.296391E-07
       250 -1.411550E-08  1.030329E-03 -5.584830E-05
       251 -4.724371E-07  7.623940E-04 -1.653834E-06