    1C
    1UUSER                                                              
    1UDATE              11.july.2018                                    
    1UTIME              15:08:02                                        
    1UHOST                                                              
    1UPGM               CalculiX                                        
    1UVERSION           Version 2.13                             
    1UCOMPILETIME       jue jun 14 00:40:39 CEST 2018                    
    1UDIR                                                               
    1UDBN                                                               
    1UMAT    1EL                                                        
    2C                            81                                     1
 -1         5 0.00000E+00 0.00000E+00 8.00000E+00
 -1         6 1.00000E+00 0.00000E+00 8.00000E+00
 -1         7 1.00000E+00 1.00000E+00 8.00000E+00
 -1         8 0.00000E+00 1.00000E+00 8.00000E+00
 -1        21 2.50000E-01 0.00000E+00 8.00000E+00
 -1        22 5.00000E-01 0.00000E+00 8.00000E+00
 -1        23 7.50000E-01 0.00000E+00 8.00000E+00
 -1        24 1.00000E+00 2.50000E-01 8.00000E+00
 -1        25 1.00000E+00 5.00000E-01 8.00000E+00
 -1        26 1.00000E+00 7.50000E-01 8.00000E+00
 -1        27 7.50000E-01 1.00000E+00 8.00000E+00
 -1        28 5.00000E-01 1.00000E+00 8.00000E+00
 -1        29 2.50000E-01 1.00000E+00 8.00000E+00
 -1        30 0.00000E+00 7.50000E-01 8.00000E+00
 -1        31 0.00000E+00 5.00000E-01 8.00000E+00
 -1        32 0.00000E+00 2.50000E-01 8.00000E+00
 -1        44 1.00000E+00 0.00000E+00 6.00000E+00
 -1        45 1.00000E+00 0.00000E+00 6.50000E+00
 -1        46 1.00000E+00 0.00000E+00 7.00000E+00
 -1        47 1.00000E+00 0.00000E+00 7.50000E+00
 -1        48 0.00000E+00 0.00000E+00 7.50000E+00
 -1        49 0.00000E+00 0.00000E+00 7.00000E+00
 -1        50 0.00000E+00 0.00000E+00 6.50000E+00
 -1        51 0.00000E+00 0.00000E+00 6.00000E+00
 -1        74 1.00000E+00 1.00000E+00 6.00000E+00
 -1        75 1.00000E+00 1.00000E+00 6.50000E+00
 -1        76 1.00000E+00 1.00000E+00 7.00000E+00
 -1        77 1.00000E+00 1.00000E+00 7.50000E+00
 -1        89 0.00000E+00 1.00000E+00 6.00000E+00
 -1        90 0.00000E+00 1.00000E+00 6.50000E+00
 -1        91 0.00000E+00 1.00000E+00 7.00000E+00
 -1        92 0.00000E+00 1.00000E+00 7.50000E+00
 -1        98 5.00000E-01 2.50000E-01 8.00000E+00
 -1        99 2.50000E-01 5.00000E-01 8.00000E+00
 -1       100 5.00000E-01 5.00000E-01 8.00000E+00
 -1       101 7.50000E-01 5.00000E-01 8.00000E+00
 -1       102 5.00000E-01 7.50000E-01 8.00000E+00
 -1       124 2.50000E-01 0.00000E+00 6.00000E+00
 -1       125 5.00000E-01 0.00000E+00 6.00000E+00
 -1       126 7.50000E-01 0.00000E+00 6.00000E+00
 -1       127 5.00000E-01 0.00000E+00 6.50000E+00
 -1       128 2.50000E-01 0.00000E+00 7.00000E+00
 -1       129 5.00000E-01 0.00000E+00 7.00000E+00
 -1       130 7.50000E-01 0.00000E+00 7.00000E+00
 -1       131 5.00000E-01 0.00000E+00 7.50000E+00
 -1       153 1.00000E+00 2.50000E-01 6.00000E+00
 -1       154 1.00000E+00 5.00000E-01 6.00000E+00
 -1       155 1.00000E+00 7.50000E-01 6.00000E+00
 -1       156 1.00000E+00 5.00000E-01 6.50000E+00
 -1       157 1.00000E+00 2.50000E-01 7.00000E+00
 -1       158 1.00000E+00 5.00000E-01 7.00000E+00
 -1       159 1.00000E+00 7.50000E-01 7.00000E+00
 -1       160 1.00000E+00 5.00000E-01 7.50000E+00
 -1       182 7.50000E-01 1.00000E+00 6.00000E+00
 -1       183 5.00000E-01 1.00000E+00 6.00000E+00
 -1       184 2.50000E-01 1.00000E+00 6.00000E+00
 -1       185 5.00000E-01 1.00000E+00 6.50000E+00
 -1       186 7.50000E-01 1.00000E+00 7.00000E+00
 -1       187 5.00000E-01 1.00000E+00 7.00000E+00
 -1       188 2.50000E-01 1.00000E+00 7.00000E+00
 -1       189 5.00000E-01 1.00000E+00 7.50000E+00
 -1       211 0.00000E+00 7.50000E-01 6.00000E+00
 -1       212 0.00000E+00 5.00000E-01 6.00000E+00
 -1       213 0.00000E+00 2.50000E-01 6.00000E+00
 -1       214 0.00000E+00 5.00000E-01 6.50000E+00
 -1       215 0.00000E+00 7.50000E-01 7.00000E+00
 -1       216 0.00000E+00 5.00000E-01 7.00000E+00
 -1       217 0.00000E+00 2.50000E-01 7.00000E+00
 -1       218 0.00000E+00 5.00000E-01 7.50000E+00
 -1       250 5.00000E-01 2.50000E-01 6.00000E+00
 -1       251 2.50000E-01 5.00000E-01 6.00000E+00
 -1       252 5.00000E-01 5.00000E-01 6.00000E+00
 -1       253 7.50000E-01 5.00000E-01 6.00000E+00
 -1       254 5.00000E-01 7.50000E-01 6.00000E+00
 -1       255 5.00000E-01 5.00000E-01 6.50000E+00
 -1       256 5.00000E-01 2.50000E-01 7.00000E+00
 -1       257 2.50000E-01 5.00000E-01 7.00000E+00
 -1       258 5.00000E-01 5.00000E-01 7.00000E+00
 -1       259 7.50000E-01 5.00000E-01 7.00000E+00
 -1       260 5.00000E-01 7.50000E-01 7.00000E+00
 -1       261 5.00000E-01 5.00000E-01 7.50000E+00
 -3
    3C                             8                                     1
 -1        25    4    0    1
 -2        51       125       252       212        49       129       258       216       124       250
 -2       251       213        50       127       255       214       128       256       257       217
 -1        26    4    0    1
 -2       125        44       154       252       129        46       158       258       126       153
 -2       253       250       127        45       156       255       130       157       259       256
 -1        27    4    0    1
 -2       212       252       183        89       216       258       187        91       251       254
 -2       184       211       214       255       185        90       257       260       188       215
 -1        28    4    0    1
 -2       252       154        74       183       258       158        76       187       253       155
 -2       182       254       255       156        75       185       259       159       186       260
 -1        29    4    0    1
 -2        49       129       258       216         5        22       100        31       128       256
 -2       257       217        48       131       261       218        21        98        99        32
 -1        30    4    0    1
 -2       129        46       158       258        22         6        25       100       130       157
 -2       259       256       131        47       160       261        23        24       101        98
 -1        31    4    0    1
 -2       216       258       187        91        31       100        28         8       257       260
 -2       188       215       218       261       189        92        99       102        29        30
 -1        32    4    0    1
 -2       258       158        76       187       100        25         7        28       259       159
 -2       186       260       261       160        77       189       101        26        27       102
 -3
    1PSTEP                         1           1           1          
  100CL  101 5.00000E-03          81                     1    1           1
 -4  DISP        4    1
 -5  D1          1    2    1    0
 -5  D2          1    2    2    0
 -5  D3          1    2    3    0
 -5  ALL         1    2    0    0    1ALL
 -1         5 0.00000E+00 0.00000E+00 0.00000E+00
 -1         6 0.00000E+00 0.00000E+00 0.00000E+00
 -1         7 0.00000E+00 0.00000E+00 0.00000E+00
 -1         8 0.00000E+00 0.00000E+00 0.00000E+00
 -1        21 0.00000E+00 0.00000E+00 0.00000E+00
 -1        22 0.00000E+00 0.00000E+00 0.00000E+00
 -1        23 0.00000E+00 0.00000E+00 0.00000E+00
 -1        24 0.00000E+00 0.00000E+00 0.00000E+00
 -1        25 0.00000E+00 0.00000E+00 0.00000E+00
 -1        26 0.00000E+00 0.00000E+00 0.00000E+00
 -1        27 0.00000E+00 0.00000E+00 0.00000E+00
 -1        28 0.00000E+00 0.00000E+00 0.00000E+00
 -1        29 0.00000E+00 0.00000E+00 0.00000E+00
 -1        30 0.00000E+00 0.00000E+00 0.00000E+00
 -1        31 0.00000E+00 0.00000E+00 0.00000E+00
 -1        32 0.00000E+00 0.00000E+00 0.00000E+00
 -1        44-6.49402E-05-3.46200E-03 4.47800E-04
 -1        45 5.78407E-05-2.55571E-03 7.85180E-04
 -1        46-4.61513E-05-1.79634E-03 9.49777E-04
 -1        47 1.30587E-04-6.75079E-04 5.42269E-04
 -1        48-1.30587E-04-6.75079E-04 5.42268E-04
 -1        49 4.61510E-05-1.79634E-03 9.49776E-04
 -1        50-5.78392E-05-2.55571E-03 7.85182E-04
 -1        51 6.49383E-05-3.46201E-03 4.47806E-04
 -1        74 3.54362E-04-4.41984E-03-4.93993E-04
 -1        75 2.04234E-04-2.97532E-03-7.85583E-04
 -1        76-1.16258E-04-1.59678E-03-9.51131E-04
 -1        77-2.11625E-04-5.24590E-04-5.57150E-04
 -1        89-3.54356E-04-4.41984E-03-4.93999E-04
 -1        90-2.04233E-04-2.97532E-03-7.85585E-04
 -1        91 1.16259E-04-1.59678E-03-9.51131E-04
 -1        92 2.11625E-04-5.24590E-04-5.57151E-04
 -1        98 0.00000E+00 0.00000E+00 0.00000E+00
 -1        99 0.00000E+00 0.00000E+00 0.00000E+00
 -1       100 0.00000E+00 0.00000E+00 0.00000E+00
 -1       101 0.00000E+00 0.00000E+00 0.00000E+00
 -1       102 0.00000E+00 0.00000E+00 0.00000E+00
 -1       124 1.35893E-04-2.96530E-03 4.28544E-04
 -1       125 5.53194E-10-3.57881E-03 4.47677E-04
 -1       126-1.35893E-04-2.96529E-03 4.28542E-04
 -1       127 3.58647E-10-2.55888E-03 9.02573E-04
 -1       128-6.24129E-06-1.95230E-03 9.47233E-04
 -1       129 3.24563E-10-1.81540E-03 9.40022E-04
 -1       130 6.24135E-06-1.95230E-03 9.47233E-04
 -1       131-1.06924E-11-7.36615E-04 5.56261E-04
 -1       153 7.67997E-05-3.61437E-03 1.90553E-04
 -1       154-1.09363E-04-2.48327E-03-2.06743E-05
 -1       155-8.52416E-05-3.89710E-03-2.37416E-04
 -1       156-1.17097E-04-2.78677E-03-6.56273E-05
 -1       157-2.26335E-05-1.51029E-03 3.92554E-04
 -1       158 8.47681E-05-1.56453E-03-2.96915E-05
 -1       159 5.17611E-05-1.47059E-03-4.11031E-04
 -1       160 3.89888E-05-6.57494E-04 4.81705E-06
 -1       182 1.39108E-04-2.56057E-03-4.69931E-04
 -1       183 2.13887E-09-4.33818E-03-4.76089E-04
 -1       184-1.39103E-04-2.56057E-03-4.69933E-04
 -1       185 2.83545E-10-2.82233E-03-8.70399E-04
 -1       186-4.84817E-05-2.16182E-03-9.81904E-04
 -1       187 3.57747E-10-1.83450E-03-9.60858E-04
 -1       188 4.84823E-05-2.16182E-03-9.81905E-04
 -1       189 3.03949E-11-7.22423E-04-5.64547E-04
 -1       211 8.52446E-05-3.89710E-03-2.37419E-04
 -1       212 1.09365E-04-2.48327E-03-2.06746E-05
 -1       213-7.68006E-05-3.61438E-03 1.90555E-04
 -1       214 1.17098E-04-2.78677E-03-6.56278E-05
 -1       215-5.17605E-05-1.47059E-03-4.11031E-04
 -1       216-8.47679E-05-1.56453E-03-2.96919E-05
 -1       217 2.26337E-05-1.51029E-03 3.92554E-04
 -1       218-3.89888E-05-6.57494E-04 4.81691E-06
 -1       250 2.03330E-10-4.09204E-03 1.74136E-04
 -1       251 4.07606E-05-2.56900E-03-1.03422E-05
 -1       252 4.51726E-12-3.12814E-03-1.59035E-05
 -1       253-4.07599E-05-2.56900E-03-1.03422E-05
 -1       254 1.29152E-09-4.39167E-03-2.54112E-04
 -1       255 4.06420E-10-2.59716E-03-3.17493E-05
 -1       256 2.33808E-10-1.60491E-03 3.94604E-04
 -1       257-4.28334E-05-1.74708E-03-1.19629E-05
 -1       258 9.12250E-11-1.79010E-03-1.45572E-05
 -1       259 4.28336E-05-1.74708E-03-1.19626E-05
 -1       260 1.59852E-10-1.62718E-03-4.17374E-04
 -1       261 9.05028E-11-7.16062E-04-1.83424E-06
 -3
    1PSTEP                         2           2           1          
  100CL  102 1.00000E-02          81                     1    2           1
 -4  DISP        4    1
 -5  D1          1    2    1    0
 -5  D2          1    2    2    0
 -5  D3          1    2    3    0
 -5  ALL         1    2    0    0    1ALL
 -1         5 0.00000E+00 0.00000E+00 0.00000E+00
 -1         6 0.00000E+00 0.00000E+00 0.00000E+00
 -1         7 0.00000E+00 0.00000E+00 0.00000E+00
 -1         8 0.00000E+00 0.00000E+00 0.00000E+00
 -1        21 0.00000E+00 0.00000E+00 0.00000E+00
 -1        22 0.00000E+00 0.00000E+00 0.00000E+00
 -1        23 0.00000E+00 0.00000E+00 0.00000E+00
 -1        24 0.00000E+00 0.00000E+00 0.00000E+00
 -1        25 0.00000E+00 0.00000E+00 0.00000E+00
 -1        26 0.00000E+00 0.00000E+00 0.00000E+00
 -1        27 0.00000E+00 0.00000E+00 0.00000E+00
 -1        28 0.00000E+00 0.00000E+00 0.00000E+00
 -1        29 0.00000E+00 0.00000E+00 0.00000E+00
 -1        30 0.00000E+00 0.00000E+00 0.00000E+00
 -1        31 0.00000E+00 0.00000E+00 0.00000E+00
 -1        32 0.00000E+00 0.00000E+00 0.00000E+00
 -1        44-1.51159E-04 1.60921E-03-2.33929E-04
 -1        45-3.52224E-05 1.24946E-03-3.77295E-04
 -1        46 4.15209E-05 9.13785E-04-4.32299E-04
 -1        47-5.39966E-05 3.69764E-04-2.84003E-04
 -1        48 5.39966E-05 3.69764E-04-2.84003E-04
 -1        49-4.15211E-05 9.13785E-04-4.32299E-04
 -1        50 3.52218E-05 1.24946E-03-3.77295E-04
 -1        51 1.51159E-04 1.60920E-03-2.33928E-04
 -1        74 1.49632E-04 1.61400E-03 2.34163E-04
 -1        75 3.38803E-05 1.25157E-03 3.77302E-04
 -1        76-4.06864E-05 9.12777E-04 4.32309E-04
 -1        77 5.44127E-05 3.69008E-04 2.84078E-04
 -1        89-1.49635E-04 1.61400E-03 2.34163E-04
 -1        90-3.38810E-05 1.25157E-03 3.77303E-04
 -1        91 4.06858E-05 9.12776E-04 4.32309E-04
 -1        92-5.44128E-05 3.69008E-04 2.84078E-04
 -1        98 0.00000E+00 0.00000E+00 0.00000E+00
 -1        99 0.00000E+00 0.00000E+00 0.00000E+00
 -1       100 0.00000E+00 0.00000E+00 0.00000E+00
 -1       101 0.00000E+00 0.00000E+00 0.00000E+00
 -1       102 0.00000E+00 0.00000E+00 0.00000E+00
 -1       124 4.67487E-06 1.47955E-03-2.20455E-04
 -1       125-3.42778E-10 1.76870E-03-2.31324E-04
 -1       126-4.67570E-06 1.47955E-03-2.20455E-04
 -1       127-1.07195E-10 1.30159E-03-4.17348E-04
 -1       128-3.43030E-06 9.59175E-04-4.63527E-04
 -1       129-1.82963E-10 8.89425E-04-4.72298E-04
 -1       130 3.43009E-06 9.59175E-04-4.63527E-04
 -1       131-1.75692E-11 3.75405E-04-2.76034E-04
 -1       153 1.24720E-04 1.91672E-03-1.03870E-04
 -1       154 5.11413E-07 1.69345E-03 1.05201E-07
 -1       155-1.24641E-04 1.91809E-03 1.04106E-04
 -1       156 5.72370E-07 1.40659E-03 3.31348E-07
 -1       157-2.49630E-05 7.92910E-04-1.86044E-04
 -1       158-4.16105E-07 8.09845E-04 1.48739E-07
 -1       159 2.48079E-05 7.92716E-04 1.86137E-04
 -1       160-1.91128E-07 3.08209E-04-2.36785E-08
 -1       182 4.66429E-06 1.47754E-03 2.20665E-04
 -1       183-6.30544E-10 1.77246E-03 2.31469E-04
 -1       184-4.66623E-06 1.47754E-03 2.20665E-04
 -1       185-5.15856E-10 1.30288E-03 4.17183E-04
 -1       186-3.21886E-06 9.60222E-04 4.63701E-04
 -1       187-1.28764E-10 8.89545E-04 4.72399E-04
 -1       188 3.21847E-06 9.60222E-04 4.63701E-04
 -1       189-8.13148E-11 3.75343E-04 2.76076E-04
 -1       211 1.24640E-04 1.91809E-03 1.04106E-04
 -1       212-5.12638E-07 1.69345E-03 1.05463E-07
 -1       213-1.24720E-04 1.91672E-03-1.03870E-04
 -1       214-5.73673E-07 1.40659E-03 3.31678E-07
 -1       215-2.48082E-05 7.92715E-04 1.86137E-04
 -1       216 4.16324E-07 8.09845E-04 1.49009E-07
 -1       217 2.49629E-05 7.92909E-04-1.86044E-04
 -1       218 1.91102E-07 3.08209E-04-2.35178E-08
 -1       250-6.43432E-10 1.90995E-03-1.03054E-04
 -1       251-1.76369E-07 1.20958E-03 5.30639E-08
 -1       252-7.12248E-10 1.54242E-03 8.15807E-08
 -1       253 1.75588E-07 1.20958E-03 5.26127E-08
 -1       254-7.02276E-10 1.91147E-03 1.03457E-04
 -1       255-2.00254E-10 1.37508E-03 1.58745E-07
 -1       256-1.86578E-10 7.83323E-04-2.07260E-04
 -1       257 2.07935E-07 9.13972E-04 6.03397E-08
 -1       258-2.52789E-10 8.12434E-04 7.32438E-08
 -1       259-2.08210E-07 9.13972E-04 6.02525E-08
 -1       260-1.78705E-10 7.83439E-04 2.07375E-04
 -1       261-3.49536E-11 3.48479E-04 8.57587E-09
 -3
    1PSTEP                         3           3           1          
  100CL  103 1.50000E-02          81                     1    3           1
 -4  DISP        4    1
 -5  D1          1    2    1    0
 -5  D2          1    2    2    0
 -5  D3          1    2    3    0
 -5  ALL         1    2    0    0    1ALL
 -1         5 0.00000E+00 0.00000E+00 0.00000E+00
 -1         6 0.00000E+00 0.00000E+00 0.00000E+00
 -1         7 0.00000E+00 0.00000E+00 0.00000E+00
 -1         8 0.00000E+00 0.00000E+00 0.00000E+00
 -1        21 0.00000E+00 0.00000E+00 0.00000E+00
 -1        22 0.00000E+00 0.00000E+00 0.00000E+00
 -1        23 0.00000E+00 0.00000E+00 0.00000E+00
 -1        24 0.00000E+00 0.00000E+00 0.00000E+00
 -1        25 0.00000E+00 0.00000E+00 0.00000E+00
 -1        26 0.00000E+00 0.00000E+00 0.00000E+00
 -1        27 0.00000E+00 0.00000E+00 0.00000E+00
 -1        28 0.00000E+00 0.00000E+00 0.00000E+00
 -1        29 0.00000E+00 0.00000E+00 0.00000E+00
 -1        30 0.00000E+00 0.00000E+00 0.00000E+00
 -1        31 0.00000E+00 0.00000E+00 0.00000E+00
 -1        32 0.00000E+00 0.00000E+00 0.00000E+00
 -1        44 1.21064E-04-1.27391E-03 1.85398E-04
 -1        45 2.79214E-05-9.89630E-04 2.98793E-04
 -1        46-3.29975E-05-7.24020E-04 3.42160E-04
 -1        47 4.27069E-05-2.93169E-04 2.25088E-04
 -1        48-4.27029E-05-2.93168E-04 2.25083E-04
 -1        49 3.30120E-05-7.24020E-04 3.42149E-04
 -1        50-2.78987E-05-9.89628E-04 2.98777E-04
 -1        51-1.21023E-04-1.27390E-03 1.85391E-04
 -1        74-1.20987E-04-1.27412E-03-1.85403E-04
 -1        75-2.78520E-05-9.89718E-04-2.98777E-04
 -1        76 3.29856E-05-7.23983E-04-3.42149E-04
 -1        77-4.27176E-05-2.93135E-04-2.25087E-04
 -1        89 1.21028E-04-1.27412E-03-1.85412E-04
 -1        90 2.78749E-05-9.89720E-04-2.98793E-04
 -1        91-3.29713E-05-7.23984E-04-3.42161E-04
 -1        92 4.27215E-05-2.93136E-04-2.25093E-04
 -1        98 0.00000E+00 0.00000E+00 0.00000E+00
 -1        99 0.00000E+00 0.00000E+00 0.00000E+00
 -1       100 0.00000E+00 0.00000E+00 0.00000E+00
 -1       101 0.00000E+00 0.00000E+00 0.00000E+00
 -1       102 0.00000E+00 0.00000E+00 0.00000E+00
 -1       124-4.21934E-06-1.17212E-03 1.74690E-04
 -1       125 2.59727E-08-1.40097E-03 1.83313E-04
 -1       126 4.27891E-06-1.17211E-03 1.74694E-04
 -1       127 1.11658E-08-1.03127E-03 3.30368E-04
 -1       128 2.76903E-06-7.59733E-04 3.67134E-04
 -1       129 7.32188E-09-7.04495E-04 3.74173E-04
 -1       130-2.75798E-06-7.59735E-04 3.67139E-04
 -1       131 1.11844E-09-2.97461E-04 2.18660E-04
 -1       153-9.99797E-05-1.51926E-03 8.23552E-05
 -1       154-1.92205E-08-1.34502E-03-1.56940E-09
 -1       155 1.00026E-04-1.51935E-03-8.23572E-05
 -1       156-1.77818E-08-1.11445E-03-9.57976E-09
 -1       157 2.00501E-05-6.28426E-04 1.47315E-04
 -1       158 2.85331E-08-6.41749E-04-5.90779E-10
 -1       159-2.00302E-05-6.28416E-04-1.47308E-04
 -1       160 1.20364E-08-2.44001E-04 3.88724E-09
 -1       182-4.20371E-06-1.17202E-03-1.74700E-04
 -1       183 2.56931E-08-1.40116E-03-1.83322E-04
 -1       184 4.26301E-06-1.17202E-03-1.74706E-04
 -1       185 1.08342E-08-1.03134E-03-3.30365E-04
 -1       186 2.75761E-06-7.59786E-04-3.67143E-04
 -1       187 7.43848E-09-7.04497E-04-3.74181E-04
 -1       188-2.74647E-06-7.59788E-04-3.67148E-04
 -1       189 1.10843E-09-2.97457E-04-2.18663E-04
 -1       211-9.99921E-05-1.51935E-03-8.23693E-05
 -1       212 5.58065E-08-1.34502E-03-1.04537E-08
 -1       213 1.00013E-04-1.51926E-03 8.23442E-05
 -1       214 4.30500E-08-1.11445E-03-2.10595E-08
 -1       215 2.00456E-05-6.28415E-04-1.47320E-04
 -1       216-1.49660E-08-6.41749E-04-1.38927E-08
 -1       217-2.00344E-05-6.28427E-04 1.47303E-04
 -1       218-9.01858E-09-2.44001E-04-1.07975E-09
 -1       250 1.27766E-08-1.51210E-03 8.17594E-05
 -1       251 4.35613E-08-9.57635E-04-6.17190E-09
 -1       252 1.03437E-08-1.22185E-03-4.17268E-09
 -1       253-6.55927E-09-9.57635E-04-1.56339E-09
 -1       254 1.32560E-08-1.51215E-03-8.17811E-05
 -1       255 1.55333E-08-1.08995E-03-8.97695E-09
 -1       256 6.58662E-09-6.20407E-04 1.64269E-04
 -1       257-9.57987E-09-7.24368E-04-6.36567E-09
 -1       258 2.97448E-09-6.42977E-04-4.18745E-09
 -1       259 1.70109E-08-7.24368E-04-3.99237E-10
 -1       260 6.49888E-09-6.20417E-04-1.64275E-04
 -1       261 1.39710E-09-2.75985E-04-6.16828E-10
 -3
    1PSTEP                         4           4           1          
  100CL  104 2.00000E-02          81                     1    4           1
 -4  DISP        4    1
 -5  D1          1    2    1    0
 -5  D2          1    2    2    0
 -5  D3          1    2    3    0
 -5  ALL         1    2    0    0    1ALL
 -1         5 0.00000E+00 0.00000E+00 0.00000E+00
 -1         6 0.00000E+00 0.00000E+00 0.00000E+00
 -1         7 0.00000E+00 0.00000E+00 0.00000E+00
 -1         8 0.00000E+00 0.00000E+00 0.00000E+00
 -1        21 0.00000E+00 0.00000E+00 0.00000E+00
 -1        22 0.00000E+00 0.00000E+00 0.00000E+00
 -1        23 0.00000E+00 0.00000E+00 0.00000E+00
 -1        24 0.00000E+00 0.00000E+00 0.00000E+00
 -1        25 0.00000E+00 0.00000E+00 0.00000E+00
 -1        26 0.00000E+00 0.00000E+00 0.00000E+00
 -1        27 0.00000E+00 0.00000E+00 0.00000E+00
 -1        28 0.00000E+00 0.00000E+00 0.00000E+00
 -1        29 0.00000E+00 0.00000E+00 0.00000E+00
 -1        30 0.00000E+00 0.00000E+00 0.00000E+00
 -1        31 0.00000E+00 0.00000E+00 0.00000E+00
 -1        32 0.00000E+00 0.00000E+00 0.00000E+00
 -1        44-9.40257E-05 9.88720E-04-1.43897E-04
 -1        45-2.16648E-05 7.68114E-04-2.31899E-04
 -1        46 2.56389E-05 5.61991E-04-2.65554E-04
 -1        47-3.31378E-05 2.27569E-04-1.74711E-04
 -1        48 3.31412E-05 2.27569E-04-1.74715E-04
 -1        49-2.56271E-05 5.61991E-04-2.65564E-04
 -1        50 2.16830E-05 7.68116E-04-2.31912E-04
 -1        51 9.40583E-05 9.88723E-04-1.43904E-04
 -1        74 9.40554E-05 9.88724E-04 1.43906E-04
 -1        75 2.16825E-05 7.68116E-04 2.31913E-04
 -1        76-2.56239E-05 5.61989E-04 2.65564E-04
 -1        77 3.31418E-05 2.27569E-04 1.74716E-04
 -1        89-9.40246E-05 9.88719E-04 1.43899E-04
 -1        90-2.16647E-05 7.68114E-04 2.31900E-04
 -1        91 2.56355E-05 5.61988E-04 2.65555E-04
 -1        92-3.31385E-05 2.27569E-04 1.74711E-04
 -1        98 0.00000E+00 0.00000E+00 0.00000E+00
 -1        99 0.00000E+00 0.00000E+00 0.00000E+00
 -1       100 0.00000E+00 0.00000E+00 0.00000E+00
 -1       101 0.00000E+00 0.00000E+00 0.00000E+00
 -1       102 0.00000E+00 0.00000E+00 0.00000E+00
 -1       124 3.33357E-06 9.09776E-04-1.35592E-04
 -1       125 2.07608E-08 1.08740E-03-1.42284E-04
 -1       126-3.28624E-06 9.09779E-04-1.35588E-04
 -1       127 8.94939E-09 8.00463E-04-2.56415E-04
 -1       128-2.14089E-06 5.89690E-04-2.84965E-04
 -1       129 5.89732E-09 5.46811E-04-2.90430E-04
 -1       130 2.14989E-06 5.89689E-04-2.84961E-04
 -1       131 9.28262E-10 2.30888E-04-1.69720E-04
 -1       153 7.76992E-05 1.17929E-03-6.39150E-05
 -1       154 1.32490E-08 1.04416E-03 5.13904E-09
 -1       155-7.76710E-05 1.17927E-03 6.39256E-05
 -1       156 9.22467E-09 8.65026E-04 5.68827E-09
 -1       157-1.55658E-05 4.87788E-04-1.14330E-04
 -1       158 4.95341E-09 4.98126E-04 5.49403E-09
 -1       159 1.55774E-05 4.87792E-04 1.14340E-04
 -1       160 1.43886E-09 1.89382E-04 1.98997E-09
 -1       182 3.35352E-06 9.09778E-04 1.35594E-04
 -1       183 1.98633E-08 1.08740E-03 1.42285E-04
 -1       184-3.30779E-06 9.09780E-04 1.35590E-04
 -1       185 8.67267E-09 8.00463E-04 2.56415E-04
 -1       186-2.14450E-06 5.89692E-04 2.84965E-04
 -1       187 5.82368E-09 5.46816E-04 2.90430E-04
 -1       188 2.15328E-06 5.89691E-04 2.84961E-04
 -1       189 8.74673E-10 2.30889E-04 1.69720E-04
 -1       211 7.76978E-05 1.17927E-03 6.39171E-05
 -1       212 1.54681E-08 1.04416E-03-2.74482E-09
 -1       213-7.76720E-05 1.17929E-03-6.39245E-05
 -1       214 1.04497E-08 8.65026E-04-3.56813E-09
 -1       215-1.55651E-05 4.87792E-04 1.14331E-04
 -1       216 6.40236E-09 4.98126E-04-5.04896E-09
 -1       217 1.55783E-05 4.87787E-04-1.14340E-04
 -1       218 1.11186E-09 1.89382E-04-1.95758E-09
 -1       250 1.03714E-08 1.17360E-03-6.34642E-05
 -1       251 2.60792E-08 7.43262E-04-1.41807E-09
 -1       252 8.63503E-09 9.48373E-04 8.65606E-10
 -1       253 4.19370E-09 7.43262E-04 2.76696E-09
 -1       254 1.01868E-08 1.17362E-03 6.34665E-05
 -1       255 1.25086E-08 8.46039E-04 6.41308E-10
 -1       256 5.29716E-09 4.81546E-04-1.27507E-04
 -1       257 1.14355E-09 5.62262E-04-1.90844E-09
 -1       258 2.38121E-09 4.99036E-04 4.08009E-10
 -1       259 4.91749E-09 5.62262E-04 2.74892E-09
 -1       260 5.20240E-09 4.81544E-04 1.27507E-04
 -1       261 1.09668E-09 2.14211E-04 1.49078E-12
 -3
    1PSTEP                         5           5           1          
  100CL  105 2.50000E-02          81                     1    5           1
 -4  DISP        4    1
 -5  D1          1    2    1    0
 -5  D2          1    2    2    0
 -5  D3          1    2    3    0
 -5  ALL         1    2    0    0    1ALL
 -1         5 0.00000E+00 0.00000E+00 0.00000E+00
 -1         6 0.00000E+00 0.00000E+00 0.00000E+00
 -1         7 0.00000E+00 0.00000E+00 0.00000E+00
 -1         8 0.00000E+00 0.00000E+00 0.00000E+00
 -1        21 0.00000E+00 0.00000E+00 0.00000E+00
 -1        22 0.00000E+00 0.00000E+00 0.00000E+00
 -1        23 0.00000E+00 0.00000E+00 0.00000E+00
 -1        24 0.00000E+00 0.00000E+00 0.00000E+00
 -1        25 0.00000E+00 0.00000E+00 0.00000E+00
 -1        26 0.00000E+00 0.00000E+00 0.00000E+00
 -1        27 0.00000E+00 0.00000E+00 0.00000E+00
 -1        28 0.00000E+00 0.00000E+00 0.00000E+00
 -1        29 0.00000E+00 0.00000E+00 0.00000E+00
 -1        30 0.00000E+00 0.00000E+00 0.00000E+00
 -1        31 0.00000E+00 0.00000E+00 0.00000E+00
 -1        32 0.00000E+00 0.00000E+00 0.00000E+00
 -1        44 7.09842E-05-7.46415E-04 1.08628E-04
 -1        45 1.63533E-05-5.79857E-04 1.75072E-04
 -1        46-1.93394E-05-4.24236E-04 2.00471E-04
 -1        47 2.50204E-05-1.71787E-04 1.31891E-04
 -1        48-2.50185E-05-1.71787E-04 1.31889E-04
 -1        49 1.93462E-05-4.24236E-04 2.00465E-04
 -1        50-1.63434E-05-5.79856E-04 1.75064E-04
 -1        51-7.09657E-05-7.46412E-04 1.08624E-04
 -1        74-7.09912E-05-7.46386E-04-1.08625E-04
 -1        75-1.63584E-05-5.79841E-04-1.75065E-04
 -1        76 1.93547E-05-4.24245E-04-2.00465E-04
 -1        77-2.50143E-05-1.71791E-04-1.31889E-04
 -1        89 7.10087E-05-7.46389E-04-1.08629E-04
 -1        90 1.63683E-05-5.79843E-04-1.75072E-04
 -1        91-1.93480E-05-4.24245E-04-2.00471E-04
 -1        92 2.50161E-05-1.71791E-04-1.31891E-04
 -1        98 0.00000E+00 0.00000E+00 0.00000E+00
 -1        99 0.00000E+00 0.00000E+00 0.00000E+00
 -1       100 0.00000E+00 0.00000E+00 0.00000E+00
 -1       101 0.00000E+00 0.00000E+00 0.00000E+00
 -1       102 0.00000E+00 0.00000E+00 0.00000E+00
 -1       124-2.49126E-06-6.86772E-04 1.02352E-04
 -1       125 1.18452E-08-8.20884E-04 1.07407E-04
 -1       126 2.51895E-06-6.86770E-04 1.02354E-04
 -1       127 4.95847E-09-6.04272E-04 1.93560E-04
 -1       128 1.62236E-06-4.45155E-04 2.15116E-04
 -1       129 3.34522E-09-4.12778E-04 2.19244E-04
 -1       130-1.61738E-06-4.45156E-04 2.15119E-04
 -1       131 5.30879E-10-1.74293E-04 1.28120E-04
 -1       153-5.86370E-05-8.90271E-04 4.82536E-05
 -1       154 3.58031E-09-7.88253E-04 1.03674E-09
 -1       155 5.86610E-05-8.90261E-04-4.82493E-05
 -1       156 6.58377E-09-6.52995E-04 3.76887E-09
 -1       157 1.17596E-05-3.68228E-04 8.63122E-05
 -1       158 2.97162E-09-3.76040E-04 3.49422E-09
 -1       159-1.17544E-05-3.68231E-04-8.63071E-05
 -1       160 5.57870E-10-1.42963E-04 1.15105E-09
 -1       182-2.49785E-06-6.86782E-04-1.02352E-04
 -1       183 1.09898E-08-8.20874E-04-1.07408E-04
 -1       184 2.52417E-06-6.86780E-04-1.02354E-04
 -1       185 4.87890E-09-6.04274E-04-1.93563E-04
 -1       186 1.62486E-06-4.45153E-04-2.15117E-04
 -1       187 3.33581E-09-4.12778E-04-2.19246E-04
 -1       188-1.61993E-06-4.45154E-04-2.15119E-04
 -1       189 5.25564E-10-1.74293E-04-1.28120E-04
 -1       211-5.86463E-05-8.90264E-04-4.82538E-05
 -1       212 1.31282E-08-7.88253E-04-2.81871E-09
 -1       213 5.86520E-05-8.90267E-04 4.82481E-05
 -1       214 4.88198E-09-6.52995E-04-1.24512E-09
 -1       215 1.17615E-05-3.68230E-04-8.63127E-05
 -1       216 3.14222E-09-3.76040E-04-2.53391E-09
 -1       217-1.17524E-05-3.68228E-04 8.63067E-05
 -1       218 7.49636E-10-1.42963E-04-1.08561E-09
 -1       250 5.57537E-09-8.85934E-04 4.79084E-05
 -1       251 9.39207E-09-5.61081E-04-1.88631E-09
 -1       252 4.77296E-09-7.15896E-04-2.67903E-10
 -1       253 7.70807E-09-5.61081E-04 6.41997E-14
 -1       254 5.52473E-09-8.85933E-04-4.79087E-05
 -1       255 7.16673E-09-6.38677E-04-3.48827E-10
 -1       256 3.02088E-09-3.63509E-04 9.62553E-05
 -1       257 1.95106E-09-4.24447E-04-1.53244E-09
 -1       258 1.26030E-09-3.76710E-04-2.27035E-10
 -1       259 1.27252E-09-4.24447E-04 1.17193E-09
 -1       260 2.93389E-09-3.63509E-04-9.62556E-05
 -1       261 5.93382E-10-1.61706E-04-5.86159E-11
 -3
    1PSTEP                         6           6           1          
  100CL  106 3.00000E-02          81                     1    6           1
 -4  DISP        4    1
 -5  D1          1    2    1    0
 -5  D2          1    2    2    0
 -5  D3          1    2    3    0
 -5  ALL         1    2    0    0    1ALL
 -1         5 0.00000E+00 0.00000E+00 0.00000E+00
 -1         6 0.00000E+00 0.00000E+00 0.00000E+00
 -1         7 0.00000E+00 0.00000E+00 0.00000E+00
 -1         8 0.00000E+00 0.00000E+00 0.00000E+00
 -1        21 0.00000E+00 0.00000E+00 0.00000E+00
 -1        22 0.00000E+00 0.00000E+00 0.00000E+00
 -1        23 0.00000E+00 0.00000E+00 0.00000E+00
 -1        24 0.00000E+00 0.00000E+00 0.00000E+00
 -1        25 0.00000E+00 0.00000E+00 0.00000E+00
 -1        26 0.00000E+00 0.00000E+00 0.00000E+00
 -1        27 0.00000E+00 0.00000E+00 0.00000E+00
 -1        28 0.00000E+00 0.00000E+00 0.00000E+00
 -1        29 0.00000E+00 0.00000E+00 0.00000E+00
 -1        30 0.00000E+00 0.00000E+00 0.00000E+00
 -1        31 0.00000E+00 0.00000E+00 0.00000E+00
 -1        32 0.00000E+00 0.00000E+00 0.00000E+00
 -1        44-5.14876E-05 5.41234E-04-7.87639E-05
 -1        45-1.18625E-05 4.20466E-04-1.26949E-04
 -1        46 1.40286E-05 3.07633E-04-1.45367E-04
 -1        47-1.81405E-05 1.24570E-04-9.56384E-05