    1C
    1UUSER                                                              
    1UDATE              11.july.2018                                    
    1UTIME              14:59:16                                        
    1UHOST                                                              
    1UPGM               CalculiX                                        
    1UVERSION           Version 2.13                             
    1UCOMPILETIME       jue jun 14 00:40:39 CEST 2018                    
    1UDIR                                                               
    1UDBN                                                               
    1UMAT    1EL                                                        
    2C                           201                                     1
 -1         1 0.00000E+00 0.00000E+00 0.00000E+00
 -1         2 1.00000E+00 0.00000E+00 0.00000E+00
 -1         3 1.00000E+00 1.00000E+00 0.00000E+00
 -1         4 0.00000E+00 1.00000E+00 0.00000E+00
 -1         9 2.50000E-01 0.00000E+00 0.00000E+00
 -1        10 5.00000E-01 0.00000E+00 0.00000E+00
 -1        11 7.50000E-01 0.00000E+00 0.00000E+00
 -1        12 1.00000E+00 2.50000E-01 0.00000E+00
 -1        13 1.00000E+00 5.00000E-01 0.00000E+00
 -1        14 1.00000E+00 7.50000E-01 0.00000E+00
 -1        15 7.50000E-01 1.00000E+00 0.00000E+00
 -1        16 5.00000E-01 1.00000E+00 0.00000E+00
 -1        17 2.50000E-01 1.00000E+00 0.00000E+00
 -1        18 0.00000E+00 7.50000E-01 0.00000E+00
 -1        19 0.00000E+00 5.00000E-01 0.00000E+00
 -1        20 0.00000E+00 2.50000E-01 0.00000E+00
 -1        33 1.00000E+00 0.00000E+00 5.00000E-01
 -1        34 1.00000E+00 0.00000E+00 1.00000E+00
 -1        35 1.00000E+00 0.00000E+00 1.50000E+00
 -1        36 1.00000E+00 0.00000E+00 2.00000E+00
 -1        37 1.00000E+00 0.00000E+00 2.50000E+00
 -1        38 1.00000E+00 0.00000E+00 3.00000E+00
 -1        39 1.00000E+00 0.00000E+00 3.50000E+00
 -1        40 1.00000E+00 0.00000E+00 4.00000E+00
 -1        41 1.00000E+00 0.00000E+00 4.50000E+00
 -1        42 1.00000E+00 0.00000E+00 5.00000E+00
 -1        43 1.00000E+00 0.00000E+00 5.50000E+00
 -1        44 1.00000E+00 0.00000E+00 6.00000E+00
 -1        51 0.00000E+00 0.00000E+00 6.00000E+00
 -1        52 0.00000E+00 0.00000E+00 5.50000E+00
 -1        53 0.00000E+00 0.00000E+00 5.00000E+00
 -1        54 0.00000E+00 0.00000E+00 4.50000E+00
 -1        55 0.00000E+00 0.00000E+00 4.00000E+00
 -1        56 0.00000E+00 0.00000E+00 3.50000E+00
 -1        57 0.00000E+00 0.00000E+00 3.00000E+00
 -1        58 0.00000E+00 0.00000E+00 2.50000E+00
 -1        59 0.00000E+00 0.00000E+00 2.00000E+00
 -1        60 0.00000E+00 0.00000E+00 1.50000E+00
 -1        61 0.00000E+00 0.00000E+00 1.00000E+00
 -1        62 0.00000E+00 0.00000E+00 5.00000E-01
 -1        63 1.00000E+00 1.00000E+00 5.00000E-01
 -1        64 1.00000E+00 1.00000E+00 1.00000E+00
 -1        65 1.00000E+00 1.00000E+00 1.50000E+00
 -1        66 1.00000E+00 1.00000E+00 2.00000E+00
 -1        67 1.00000E+00 1.00000E+00 2.50000E+00
 -1        68 1.00000E+00 1.00000E+00 3.00000E+00
 -1        69 1.00000E+00 1.00000E+00 3.50000E+00
 -1        70 1.00000E+00 1.00000E+00 4.00000E+00
 -1        71 1.00000E+00 1.00000E+00 4.50000E+00
 -1        72 1.00000E+00 1.00000E+00 5.00000E+00
 -1        73 1.00000E+00 1.00000E+00 5.50000E+00
 -1        74 1.00000E+00 1.00000E+00 6.00000E+00
 -1        78 0.00000E+00 1.00000E+00 5.00000E-01
 -1        79 0.00000E+00 1.00000E+00 1.00000E+00
 -1        80 0.00000E+00 1.00000E+00 1.50000E+00
 -1        81 0.00000E+00 1.00000E+00 2.00000E+00
 -1        82 0.00000E+00 1.00000E+00 2.50000E+00
 -1        83 0.00000E+00 1.00000E+00 3.00000E+00
 -1        84 0.00000E+00 1.00000E+00 3.50000E+00
 -1        85 0.00000E+00 1.00000E+00 4.00000E+00
 -1        86 0.00000E+00 1.00000E+00 4.50000E+00
 -1        87 0.00000E+00 1.00000E+00 5.00000E+00
 -1        88 0.00000E+00 1.00000E+00 5.50000E+00
 -1        89 0.00000E+00 1.00000E+00 6.00000E+00
 -1        93 5.00000E-01 2.50000E-01 0.00000E+00
 -1        94 2.50000E-01 5.00000E-01 0.00000E+00
 -1        95 5.00000E-01 5.00000E-01 0.00000E+00
 -1        96 7.50000E-01 5.00000E-01 0.00000E+00
 -1        97 5.00000E-01 7.50000E-01 0.00000E+00
 -1       103 5.00000E-01 0.00000E+00 5.00000E-01
 -1       104 2.50000E-01 0.00000E+00 1.00000E+00
 -1       105 5.00000E-01 0.00000E+00 1.00000E+00
 -1       106 7.50000E-01 0.00000E+00 1.00000E+00
 -1       107 5.00000E-01 0.00000E+00 1.50000E+00
 -1       108 2.50000E-01 0.00000E+00 2.00000E+00
 -1       109 5.00000E-01 0.00000E+00 2.00000E+00
 -1       110 7.50000E-01 0.00000E+00 2.00000E+00
 -1       111 5.00000E-01 0.00000E+00 2.50000E+00
 -1       112 2.50000E-01 0.00000E+00 3.00000E+00
 -1       113 5.00000E-01 0.00000E+00 3.00000E+00
 -1       114 7.50000E-01 0.00000E+00 3.00000E+00
 -1       115 5.00000E-01 0.00000E+00 3.50000E+00
 -1       116 2.50000E-01 0.00000E+00 4.00000E+00
 -1       117 5.00000E-01 0.00000E+00 4.00000E+00
 -1       118 7.50000E-01 0.00000E+00 4.00000E+00
 -1       119 5.00000E-01 0.00000E+00 4.50000E+00
 -1       120 2.50000E-01 0.00000E+00 5.00000E+00
 -1       121 5.00000E-01 0.00000E+00 5.00000E+00
 -1       122 7.50000E-01 0.00000E+00 5.00000E+00
 -1       123 5.00000E-01 0.00000E+00 5.50000E+00
 -1       124 2.50000E-01 0.00000E+00 6.00000E+00
 -1       125 5.00000E-01 0.00000E+00 6.00000E+00
 -1       126 7.50000E-01 0.00000E+00 6.00000E+00
 -1       132 1.00000E+00 5.00000E-01 5.00000E-01
 -1       133 1.00000E+00 2.50000E-01 1.00000E+00
 -1       134 1.00000E+00 5.00000E-01 1.00000E+00
 -1       135 1.00000E+00 7.50000E-01 1.00000E+00
 -1       136 1.00000E+00 5.00000E-01 1.50000E+00
 -1       137 1.00000E+00 2.50000E-01 2.00000E+00
 -1       138 1.00000E+00 5.00000E-01 2.00000E+00
 -1       139 1.00000E+00 7.50000E-01 2.00000E+00
 -1       140 1.00000E+00 5.00000E-01 2.50000E+00
 -1       141 1.00000E+00 2.50000E-01 3.00000E+00
 -1       142 1.00000E+00 5.00000E-01 3.00000E+00
 -1       143 1.00000E+00 7.50000E-01 3.00000E+00
 -1       144 1.00000E+00 5.00000E-01 3.50000E+00
 -1       145 1.00000E+00 2.50000E-01 4.00000E+00
 -1       146 1.00000E+00 5.00000E-01 4.00000E+00
 -1       147 1.00000E+00 7.50000E-01 4.00000E+00
 -1       148 1.00000E+00 5.00000E-01 4.50000E+00
 -1       149 1.00000E+00 2.50000E-01 5.00000E+00
 -1       150 1.00000E+00 5.00000E-01 5.00000E+00
 -1       151 1.00000E+00 7.50000E-01 5.00000E+00
 -1       152 1.00000E+00 5.00000E-01 5.50000E+00
 -1       153 1.00000E+00 2.50000E-01 6.00000E+00
 -1       154 1.00000E+00 5.00000E-01 6.00000E+00
 -1       155 1.00000E+00 7.50000E-01 6.00000E+00
 -1       161 5.00000E-01 1.00000E+00 5.00000E-01
 -1       162 7.50000E-01 1.00000E+00 1.00000E+00
 -1       163 5.00000E-01 1.00000E+00 1.00000E+00
 -1       164 2.50000E-01 1.00000E+00 1.00000E+00
 -1       165 5.00000E-01 1.00000E+00 1.50000E+00
 -1       166 7.50000E-01 1.00000E+00 2.00000E+00
 -1       167 5.00000E-01 1.00000E+00 2.00000E+00
 -1       168 2.50000E-01 1.00000E+00 2.00000E+00
 -1       169 5.00000E-01 1.00000E+00 2.50000E+00
 -1       170 7.50000E-01 1.00000E+00 3.00000E+00
 -1       171 5.00000E-01 1.00000E+00 3.00000E+00
 -1       172 2.50000E-01 1.00000E+00 3.00000E+00
 -1       173 5.00000E-01 1.00000E+00 3.50000E+00
 -1       174 7.50000E-01 1.00000E+00 4.00000E+00
 -1       175 5.00000E-01 1.00000E+00 4.00000E+00
 -1       176 2.50000E-01 1.00000E+00 4.00000E+00
 -1       177 5.00000E-01 1.00000E+00 4.50000E+00
 -1       178 7.50000E-01 1.00000E+00 5.00000E+00
 -1       179 5.00000E-01 1.00000E+00 5.00000E+00
 -1       180 2.50000E-01 1.00000E+00 5.00000E+00
 -1       181 5.00000E-01 1.00000E+00 5.50000E+00
 -1       182 7.50000E-01 1.00000E+00 6.00000E+00
 -1       183 5.00000E-01 1.00000E+00 6.00000E+00
 -1       184 2.50000E-01 1.00000E+00 6.00000E+00
 -1       190 0.00000E+00 5.00000E-01 5.00000E-01
 -1       191 0.00000E+00 7.50000E-01 1.00000E+00
 -1       192 0.00000E+00 5.00000E-01 1.00000E+00
 -1       193 0.00000E+00 2.50000E-01 1.00000E+00
 -1       194 0.00000E+00 5.00000E-01 1.50000E+00
 -1       195 0.00000E+00 7.50000E-01 2.00000E+00
 -1       196 0.00000E+00 5.00000E-01 2.00000E+00
 -1       197 0.00000E+00 2.50000E-01 2.00000E+00
 -1       198 0.00000E+00 5.00000E-01 2.50000E+00
 -1       199 0.00000E+00 7.50000E-01 3.00000E+00
 -1       200 0.00000E+00 5.00000E-01 3.00000E+00
 -1       201 0.00000E+00 2.50000E-01 3.00000E+00
 -1       202 0.00000E+00 5.00000E-01 3.50000E+00
 -1       203 0.00000E+00 7.50000E-01 4.00000E+00
 -1       204 0.00000E+00 5.00000E-01 4.00000E+00
 -1       205 0.00000E+00 2.50000E-01 4.00000E+00
 -1       206 0.00000E+00 5.00000E-01 4.50000E+00
 -1       207 0.00000E+00 7.50000E-01 5.00000E+00
 -1       208 0.00000E+00 5.00000E-01 5.00000E+00
 -1       209 0.00000E+00 2.50000E-01 5.00000E+00
 -1       210 0.00000E+00 5.00000E-01 5.50000E+00
 -1       211 0.00000E+00 7.50000E-01 6.00000E+00
 -1       212 0.00000E+00 5.00000E-01 6.00000E+00
 -1       213 0.00000E+00 2.50000E-01 6.00000E+00
 -1       219 5.00000E-01 5.00000E-01 5.00000E-01
 -1       220 5.00000E-01 2.50000E-01 1.00000E+00
 -1       221 2.50000E-01 5.00000E-01 1.00000E+00
 -1       222 5.00000E-01 5.00000E-01 1.00000E+00
 -1       223 7.50000E-01 5.00000E-01 1.00000E+00
 -1       224 5.00000E-01 7.50000E-01 1.00000E+00
 -1       225 5.00000E-01 5.00000E-01 1.50000E+00
 -1       226 5.00000E-01 2.50000E-01 2.00000E+00
 -1       227 2.50000E-01 5.00000E-01 2.00000E+00
 -1       228 5.00000E-01 5.00000E-01 2.00000E+00
 -1       229 7.50000E-01 5.00000E-01 2.00000E+00
 -1       230 5.00000E-01 7.50000E-01 2.00000E+00
 -1       231 5.00000E-01 5.00000E-01 2.50000E+00
 -1       232 5.00000E-01 2.50000E-01 3.00000E+00
 -1       233 2.50000E-01 5.00000E-01 3.00000E+00
 -1       234 5.00000E-01 5.00000E-01 3.00000E+00
 -1       235 7.50000E-01 5.00000E-01 3.00000E+00
 -1       236 5.00000E-01 7.50000E-01 3.00000E+00
 -1       237 5.00000E-01 5.00000E-01 3.50000E+00
 -1       238 5.00000E-01 2.50000E-01 4.00000E+00
 -1       239 2.50000E-01 5.00000E-01 4.00000E+00
 -1       240 5.00000E-01 5.00000E-01 4.00000E+00
 -1       241 7.50000E-01 5.00000E-01 4.00000E+00
 -1       242 5.00000E-01 7.50000E-01 4.00000E+00
 -1       243 5.00000E-01 5.00000E-01 4.50000E+00
 -1       244 5.00000E-01 2.50000E-01 5.00000E+00
 -1       245 2.50000E-01 5.00000E-01 5.00000E+00
 -1       246 5.00000E-01 5.00000E-01 5.00000E+00
 -1       247 7.50000E-01 5.00000E-01 5.00000E+00
 -1       248 5.00000E-01 7.50000E-01 5.00000E+00
 -1       249 5.00000E-01 5.00000E-01 5.50000E+00
 -1       250 5.00000E-01 2.50000E-01 6.00000E+00
 -1       251 2.50000E-01 5.00000E-01 6.00000E+00
 -1       252 5.00000E-01 5.00000E-01 6.00000E+00
 -1       253 7.50000E-01 5.00000E-01 6.00000E+00
 -1       254 5.00000E-01 7.50000E-01 6.00000E+00
 -3
    3C                            24                                     1
 -1         1    4    0    1
 -2         1        10        95        19        61       105       222       192         9        93
 -2        94        20        62       103       219       190       104       220       221       193
 -1         2    4    0    1
 -2        10         2        13        95       105        34       134       222        11        12
 -2        96        93       103        33       132       219       106       133       223       220
 -1         3    4    0    1
 -2        19        95        16         4       192       222       163        79        94        97
 -2        17        18       190       219       161        78       221       224       164       191
 -1         4    4    0    1
 -2        95        13         3        16       222       134        64       163        96        14
 -2        15        97       219       132        63       161       223       135       162       224
 -1         5    4    0    1
 -2        61       105       222       192        59       109       228       196       104       220
 -2       221       193        60       107       225       194       108       226       227       197
 -1         6    4    0    1
 -2       105        34       134       222       109        36       138       228       106       133
 -2       223       220       107        35       136       225       110       137       229       226
 -1         7    4    0    1
 -2       192       222       163        79       196       228       167        81       221       224
 -2       164       191       194       225       165        80       227       230       168       195
 -1         8    4    0    1
 -2       222       134        64       163       228       138        66       167       223       135
 -2       162       224       225       136        65       165       229       139       166       230
 -1         9    4    0    1
 -2        59       109       228       196        57       113       234       200       108       226
 -2       227       197        58       111       231       198       112       232       233       201
 -1        10    4    0    1
 -2       109        36       138       228       113        38       142       234       110       137
 -2       229       226       111        37       140       231       114       141       235       232
 -1        11    4    0    1
 -2       196       228       167        81       200       234       171        83       227       230
 -2       168       195       198       231       169        82       233       236       172       199
 -1        12    4    0    1
 -2       228       138        66       167       234       142        68       171       229       139
 -2       166       230       231       140        67       169       235       143       170       236
 -1        13    4    0    1
 -2        57       113       234       200        55       117       240       204       112       232
 -2       233       201        56       115       237       202       116       238       239       205
 -1        14    4    0    1
 -2       113        38       142       234       117        40       146       240       114       141
 -2       235       232       115        39       144       237       118       145       241       238
 -1        15    4    0    1
 -2       200       234       171        83       204       240       175        85       233       236
 -2       172       199       202       237       173        84       239       242       176       203
 -1        16    4    0    1
 -2       234       142        68       171       240       146        70       175       235       143
 -2       170       236       237       144        69       173       241       147       174       242
 -1        17    4    0    1
 -2        55       117       240       204        53       121       246       208       116       238
 -2       239       205        54       119       243       206       120       244       245       209
 -1        18    4    0    1
 -2       117        40       146       240       121        42       150       246       118       145
 -2       241       238       119        41       148       243       122       149       247       244
 -1        19    4    0    1
 -2       204       240       175        85       208       246       179        87       239       242
 -2       176       203       206       243       177        86       245       248       180       207
 -1        20    4    0    1
 -2       240       146        70       175       246       150        72       179       241       147
 -2       174       242       243       148        71       177       247       151       178       248
 -1        21    4    0    1
 -2        53       121       246       208        51       125       252       212       120       244
 -2       245       209        52       123       249       210       124       250       251       213
 -1        22    4    0    1
 -2       121        42       150       246       125        44       154       252       122       149
 -2       247       244       123        43       152       249       126       153       253       250
 -1        23    4    0    1
 -2       208       246       179        87       212       252       183        89       245       248
 -2       180       207       210       249       181        88       251       254       184       211
 -1        24    4    0    1
 -2       246       150        72       179       252       154        74       183       247       151
 -2       178       248       249       152        73       181       253       155       182       254
 -3
    1PSTEP                         1           1           1          
  100CL  101 5.00000E-03         201                     1    1           1
 -4  DISP        4    1
 -5  D1          1    2    1    0
 -5  D2          1    2    2    0
 -5  D3          1    2    3    0
 -5  ALL         1    2    0    0    1ALL
 -1         1 0.00000E+00 0.00000E+00 0.00000E+00
 -1         2 0.00000E+00 0.00000E+00 0.00000E+00
 -1         3 0.00000E+00 0.00000E+00 0.00000E+00
 -1         4 0.00000E+00 0.00000E+00 0.00000E+00
 -1         9 0.00000E+00 0.00000E+00 0.00000E+00
 -1        10 0.00000E+00 0.00000E+00 0.00000E+00
 -1        11 0.00000E+00 0.00000E+00 0.00000E+00
 -1        12 0.00000E+00 0.00000E+00 0.00000E+00
 -1        13 0.00000E+00 0.00000E+00 0.00000E+00
 -1        14 0.00000E+00 0.00000E+00 0.00000E+00
 -1        15 0.00000E+00 0.00000E+00 0.00000E+00
 -1        16 0.00000E+00 0.00000E+00 0.00000E+00
 -1        17 0.00000E+00 0.00000E+00 0.00000E+00
 -1        18 0.00000E+00 0.00000E+00 0.00000E+00
 -1        19 0.00000E+00 0.00000E+00 0.00000E+00
 -1        20 0.00000E+00 0.00000E+00 0.00000E+00
 -1        33 5.76636E-05-1.41815E-04-1.85050E-04
 -1        34 2.76919E-05-4.34279E-04-3.37214E-04
 -1        35 2.33027E-05-8.78588E-04-4.36560E-04
 -1        36 6.99993E-06-1.37251E-03-4.84829E-04
 -1        37-6.08616E-06-1.90840E-03-4.89885E-04
 -1        38-2.15692E-05-2.41033E-03-4.54714E-04
 -1        39-3.67349E-05-2.86721E-03-3.41725E-04
 -1        40-2.22467E-05-3.12285E-03-1.66573E-04
 -1        41-6.35357E-05-3.22651E-03-4.68044E-05
 -1        42-5.54769E-05-3.31438E-03-7.35972E-05
 -1        43 5.59053E-05-2.98023E-03 2.39622E-05
 -1        44 9.16868E-05-2.96489E-03 3.41061E-04
 -1        51-9.14960E-05-2.96470E-03 3.40744E-04
 -1        52-5.59042E-05-2.98023E-03 2.39085E-05
 -1        53 5.55247E-05-3.31433E-03-7.35704E-05
 -1        54 6.35201E-05-3.22652E-03-4.67994E-05
 -1        55 2.22675E-05-3.12283E-03-1.66571E-04
 -1        56 3.67306E-05-2.86722E-03-3.41729E-04
 -1        57 2.15772E-05-2.41033E-03-4.54711E-04
 -1        58 6.08389E-06-1.90841E-03-4.89885E-04
 -1        59-6.99642E-06-1.37251E-03-4.84828E-04
 -1        60-2.33035E-05-8.78589E-04-4.36561E-04
 -1        61-2.76907E-05-4.34278E-04-3.37213E-04
 -1        62-5.76639E-05-1.41815E-04-1.85050E-04
 -1        63-5.63501E-05-1.40486E-04 1.81695E-04
 -1        64-2.72684E-05-4.34314E-04 3.30165E-04
 -1        65-2.17442E-05-8.76876E-04 4.26268E-04
 -1        66-7.31655E-06-1.37581E-03 4.70564E-04
 -1        67 8.44553E-06-1.90401E-03 4.72973E-04
 -1        68 2.12985E-05-2.42206E-03 4.32326E-04
 -1        69 4.05503E-05-2.85877E-03 3.15786E-04
 -1        70 3.17619E-05-3.16510E-03 1.36287E-04
 -1        71 5.30107E-05-3.18265E-03 1.04294E-05
 -1        72 6.13974E-06-3.24291E-03 2.54647E-05
 -1        73 2.49137E-05-3.10573E-03-7.97725E-05
 -1        74-2.86119E-05-3.24873E-03-3.89168E-04
 -1        78 5.63503E-05-1.40487E-04 1.81695E-04
 -1        79 2.72673E-05-4.34313E-04 3.30164E-04
 -1        80 2.17450E-05-8.76877E-04 4.26269E-04
 -1        81 7.31324E-06-1.37581E-03 4.70563E-04
 -1        82-8.44299E-06-1.90402E-03 4.72974E-04
 -1        83-2.13061E-05-2.42206E-03 4.32322E-04
 -1        84-4.05456E-05-2.85878E-03 3.15791E-04
 -1        85-3.17821E-05-3.16508E-03 1.36286E-04
 -1        86-5.29945E-05-3.18267E-03 1.04244E-05
 -1        87-6.18705E-06-3.24286E-03 2.54379E-05
 -1        88-2.49142E-05-3.10573E-03-7.97189E-05
 -1        89 2.84218E-05-3.24855E-03-3.88852E-04
 -1        93 0.00000E+00 0.00000E+00 0.00000E+00
 -1        94 0.00000E+00 0.00000E+00 0.00000E+00
 -1        95 0.00000E+00 0.00000E+00 0.00000E+00
 -1        96 0.00000E+00 0.00000E+00 0.00000E+00
 -1        97 0.00000E+00 0.00000E+00 0.00000E+00
 -1       103 8.25892E-11-1.64601E-04-1.81317E-04
 -1       104-1.36598E-05-4.53208E-04-3.43109E-04
 -1       105-4.76570E-10-4.57353E-04-3.45805E-04
 -1       106 1.36600E-05-4.53209E-04-3.43109E-04
 -1       107 4.74168E-10-8.85069E-04-4.38097E-04
 -1       108-3.40946E-06-1.38093E-03-4.89580E-04
 -1       109-1.27563E-09-1.39541E-03-4.90599E-04
 -1       110 3.40975E-06-1.38093E-03-4.89581E-04
 -1       111 1.06942E-09-1.89084E-03-4.92953E-04
 -1       112 1.01936E-05-2.43799E-03-4.60552E-04
 -1       113-3.59493E-09-2.44442E-03-4.64173E-04
 -1       114-1.01926E-05-2.43800E-03-4.60554E-04
 -1       115 2.86164E-09-2.82253E-03-3.38048E-04
 -1       116 1.38121E-05-3.14849E-03-1.75084E-04
 -1       117-7.27698E-09-3.28206E-03-1.74436E-04
 -1       118-1.38112E-05-3.14850E-03-1.75088E-04
 -1       119 6.05458E-09-3.14336E-03-4.76143E-05
 -1       120 2.15756E-05-3.38971E-03-6.97710E-05
 -1       121-1.93649E-08-3.29145E-03-9.57208E-05
 -1       122-2.15637E-05-3.38973E-03-6.97682E-05
 -1       123 2.64853E-08-3.05945E-03 8.03724E-05
 -1       124-1.31152E-05-2.66697E-03 3.14019E-04
 -1       125 3.00225E-08-2.97148E-03 3.57561E-04
 -1       126 1.32248E-05-2.66708E-03 3.14134E-04
 -1       132 5.88030E-07-1.07519E-04-1.65483E-06
 -1       133 1.44352E-05-4.25277E-04-1.60493E-04
 -1       134 6.44370E-07-4.31541E-04-3.07255E-06
 -1       135-1.36396E-05-4.25455E-04 1.53828E-04
 -1       136 2.85444E-07-8.59952E-04-5.39202E-06
 -1       137 3.45354E-06-1.37744E-03-2.40545E-04
 -1       138 1.09926E-06-1.37694E-03-6.69207E-06
 -1       139-2.48860E-06-1.37845E-03 2.26893E-04
 -1       140 3.17652E-07-1.91174E-03-9.21109E-06
 -1       141-8.38264E-06-2.41162E-03-2.15303E-04
 -1       142 1.67815E-06-2.43124E-03-7.17195E-06
 -1       143 9.62732E-06-2.42004E-03 1.96216E-04
 -1       144-2.74151E-06-2.87225E-03-1.26357E-05
 -1       145-2.24540E-05-3.18565E-03-1.05538E-04
 -1       146-5.66254E-06-3.14519E-03-2.01839E-05
 -1       147 1.88971E-05-3.19762E-03 7.20845E-05
 -1       148 9.73830E-06-3.23942E-03-1.84495E-05
 -1       149 8.55725E-06-3.09981E-03-2.15685E-05
 -1       150 2.63827E-05-3.18970E-03-1.17515E-05
 -1       151-1.43432E-05-3.08394E-03-1.83166E-05
 -1       152-4.18297E-05-3.12995E-03-1.90995E-05
 -1       153-7.02818E-05-3.46586E-03 1.48141E-04
 -1       154-3.86411E-05-2.82521E-03-1.96804E-05
 -1       155 8.04190E-05-3.54117E-03-1.88562E-04
 -1       161-7.61528E-11-1.63611E-04 1.77828E-04
 -1       162-1.33933E-05-4.52272E-04 3.36252E-04
 -1       163 5.04683E-10-4.55470E-04 3.38956E-04
 -1       164 1.33932E-05-4.52272E-04 3.36251E-04
 -1       165-4.14679E-10-8.84454E-04 4.27758E-04
 -1       166-3.80308E-06-1.37948E-03 4.76116E-04
 -1       167 1.37117E-09-1.38942E-03 4.78577E-04
 -1       168 3.80298E-06-1.37948E-03 4.76115E-04
 -1       169-9.31032E-10-1.89404E-03 4.73452E-04
 -1       170 1.12708E-05-2.43280E-03 4.39003E-04
 -1       171 3.77388E-09-2.42173E-03 4.40822E-04
 -1       172-1.12715E-05-2.43280E-03 4.39002E-04
 -1       173-2.64660E-09-2.83321E-03 3.12972E-04
 -1       174 1.35436E-05-3.10873E-03 1.45182E-04
 -1       175 7.52594E-09-3.16981E-03 1.53538E-04
 -1       176-1.35440E-05-3.10872E-03 1.45178E-04
 -1       177-5.78526E-09-3.13757E-03 1.91782E-06
 -1       178 1.32807E-05-3.41050E-03 1.94538E-05
 -1       179 1.96936E-08-3.22225E-03 2.64531E-05
 -1       180-1.32921E-05-3.41047E-03 1.94565E-05
 -1       181-2.62440E-08-3.11418E-03-1.17539E-04
 -1       182-3.97238E-05-2.55881E-03-3.58838E-04
 -1       183-2.96870E-08-3.22234E-03-3.97746E-04
 -1       184 3.96151E-05-2.55870E-03-3.58723E-04
 -1       190-5.88019E-07-1.07519E-04-1.65481E-06
 -1       191 1.36391E-05-4.25455E-04 1.53828E-04
 -1       192-6.44338E-07-4.31542E-04-3.07252E-06
 -1       193-1.44345E-05-4.25277E-04-1.60493E-04
 -1       194-2.85382E-07-8.59951E-04-5.39198E-06
 -1       195 2.48705E-06-1.37845E-03 2.26892E-04
 -1       196-1.09916E-06-1.37695E-03-6.69203E-06
 -1       197-3.45179E-06-1.37744E-03-2.40544E-04
 -1       198-3.17518E-07-1.91174E-03-9.21105E-06
 -1       199-9.63120E-06-2.42004E-03 1.96215E-04
 -1       200-1.67798E-06-2.43125E-03-7.17192E-06
 -1       201 8.38688E-06-2.41162E-03-2.15302E-04
 -1       202 2.74173E-06-2.87224E-03-1.26356E-05
 -1       203-1.89067E-05-3.19762E-03 7.20806E-05
 -1       204 5.66281E-06-3.14521E-03-2.01838E-05
 -1       205 2.24641E-05-3.18565E-03-1.05534E-04
 -1       206-9.73807E-06-3.23941E-03-1.84495E-05
 -1       207 1.43186E-05-3.08393E-03-1.83139E-05
 -1       208-2.63826E-05-3.18974E-03-1.17515E-05
 -1       209-8.53204E-06-3.09980E-03-2.15712E-05
 -1       210 4.18301E-05-3.12990E-03-1.90995E-05
 -1       211-8.05286E-05-3.54106E-03-1.88447E-04
 -1       212 3.86416E-05-2.82515E-03-1.96804E-05
 -1       213 7.03917E-05-3.46575E-03 1.48025E-04
 -1       219 4.36342E-12-1.31188E-04-1.47030E-06
 -1       220-2.28473E-10-4.43106E-04-1.66119E-04
 -1       221-3.34548E-07-4.44679E-04-3.55074E-06
 -1       222 1.49995E-11-4.43876E-04-3.82180E-06
 -1       223 3.34578E-07-4.44678E-04-3.55076E-06
 -1       224 2.57972E-10-4.42057E-04 1.59193E-04
 -1       225 3.09722E-11-8.74188E-04-4.98921E-06
 -1       226-6.28794E-10-1.38387E-03-2.45802E-04
 -1       227-4.93325E-07-1.37263E-03-6.92854E-06
 -1       228 4.85085E-11-1.37000E-03-7.98284E-06
 -1       229 4.93424E-07-1.37263E-03-6.92856E-06
 -1       230 7.25714E-10-1.38119E-03 2.30822E-04
 -1       231 7.02305E-11-1.91519E-03-7.77694E-06
 -1       232-1.67826E-09-2.41563E-03-2.23356E-04
 -1       233-8.39445E-07-2.41370E-03-1.22366E-05
 -1       234 8.85790E-11-2.39261E-03-1.43529E-05
 -1       235 8.39624E-07-2.41370E-03-1.22366E-05
 -1       236 1.85508E-09-2.40268E-03 2.01258E-04
 -1       237 1.08524E-10-2.87515E-03-8.80566E-06
 -1       238-3.74312E-09-3.21338E-03-1.12600E-04
 -1       239 3.92950E-06-3.09205E-03-1.40091E-05
 -1       240 1.21105E-10-3.08597E-03-1.61007E-05
 -1       241-3.92926E-06-3.09204E-03-1.40092E-05
 -1       242 3.99387E-09-3.16177E-03 7.66654E-05
 -1       243 1.35457E-10-3.24435E-03-2.34018E-05
 -1       244-8.54343E-09-3.05435E-03-2.00287E-05
 -1       245-9.39214E-06-3.19738E-03-2.71888E-05
 -1       246 1.34960E-10-3.03099E-03-2.09370E-05
 -1       247 9.39238E-06-3.19737E-03-2.71888E-05
 -1       248 8.82569E-09-3.01758E-03-6.26025E-06
 -1       249 1.24761E-10-3.23267E-03-1.88590E-05
 -1       250 2.65329E-08-3.10536E-03 1.00826E-04
 -1       251 3.92423E-06-2.27217E-03 1.28979E-05
 -1       252 9.20266E-11-2.41027E-03-5.59396E-06
 -1       253-3.92403E-06-2.27222E-03 1.28979E-05
 -1       254-2.62294E-08-3.23344E-03-2.25721E-04
 -3
    1PSTEP                         2           2           1          
  100CL  102 1.00000E-02         201                     1    2           1
 -4  DISP        4    1
 -5  D1          1    2    1    0
 -5  D2          1    2    2    0
 -5  D3          1    2    3    0
 -5  ALL         1    2    0    0    1ALL
 -1         1 0.00000E+00 0.00000E+00 0.00000E+00
 -1         2 0.00000E+00 0.00000E+00 0.00000E+00
 -1         3 0.00000E+00 0.00000E+00 0.00000E+00
 -1         4 0.00000E+00 0.00000E+00 0.00000E+00
 -1         9 0.00000E+00 0.00000E+00 0.00000E+00
 -1        10 0.00000E+00 0.00000E+00 0.00000E+00
 -1        11 0.00000E+00 0.00000E+00 0.00000E+00
 -1        12 0.00000E+00 0.00000E+00 0.00000E+00
 -1        13 0.00000E+00 0.00000E+00 0.00000E+00
 -1        14 0.00000E+00 0.00000E+00 0.00000E+00
 -1        15 0.00000E+00 0.00000E+00 0.00000E+00
 -1        16 0.00000E+00 0.00000E+00 0.00000E+00
 -1        17 0.00000E+00 0.00000E+00 0.00000E+00
 -1        18 0.00000E+00 0.00000E+00 0.00000E+00
 -1        19 0.00000E+00 0.00000E+00 0.00000E+00
 -1        20 0.00000E+00 0.00000E+00 0.00000E+00
 -1        33-3.19275E-05 7.93204E-05 1.02992E-04
 -1        34-1.53572E-05 2.44827E-04 1.87667E-04
 -1        35-1.26019E-05 4.92770E-04 2.42535E-04
 -1        36-4.04896E-06 7.73681E-04 2.68997E-04
 -1        37 4.82541E-06 1.07217E-03 2.70839E-04
 -1        38 1.32562E-05 1.36624E-03 2.49920E-04
 -1        39 2.11550E-05 1.60651E-03 1.85692E-04
 -1        40 1.60927E-05 1.77679E-03 8.54863E-05
 -1        41 3.73137E-05 1.81729E-03 1.23036E-05
 -1        42 3.38514E-05 1.87665E-03 1.39495E-05
 -1        43-2.20195E-05 1.67751E-03-4.67514E-05
 -1        44-5.85057E-05 1.64428E-03-2.33848E-04
 -1        51 6.06116E-05 1.64289E-03-2.34270E-04
 -1        52 2.29804E-05 1.67634E-03-4.70136E-05
 -1        53-3.18905E-05 1.87501E-03 1.41252E-05
 -1        54-3.65455E-05 1.81638E-03 1.23218E-05
 -1        55-1.49903E-05 1.77586E-03 8.54649E-05
 -1        56-2.04037E-05 1.60575E-03 1.85667E-04
 -1        57-1.24668E-05 1.36553E-03 2.49938E-04
 -1        58-4.27962E-06 1.07163E-03 2.70842E-04
 -1        59 4.53634E-06 7.73238E-04 2.69005E-04
 -1        60 1.29341E-05 4.92445E-04 2.42538E-04
 -1        61 1.55864E-05 2.44614E-04 1.87674E-04
 -1        62 3.20255E-05 7.92237E-05 1.02994E-04
 -1        63 3.19565E-05 7.92842E-05-1.03038E-04
 -1        64 1.54113E-05 2.44773E-04-1.87729E-04
 -1        65 1.25415E-05 4.92943E-04-2.42713E-04
 -1        66 4.11844E-06 7.74212E-04-2.69309E-04
 -1        67-4.55832E-06 1.07140E-03-2.71132E-04
 -1        68-1.23671E-05 1.36480E-03-2.49803E-04
 -1        69-2.26608E-05 1.60909E-03-1.85983E-04
 -1        70-1.67782E-05 1.78458E-03-8.66081E-05
 -1        71-3.30792E-05 1.80558E-03-1.39109E-05
 -1        72-1.58251E-05 1.84724E-03-1.17876E-05
 -1        73-6.52725E-06 1.72365E-03 5.14022E-05
 -1        74 4.04132E-05 1.75042E-03 2.33071E-04
 -1        78-3.20499E-05 7.91859E-05-1.03034E-04