    1C
    1UUSER                                                              
    1UDATE              11.july.2018                                    
    1UTIME              16:02:12                                        
    1UHOST                                                              
    1UPGM               CalculiX                                        
    1UVERSION           Version 2.13                             
    1UCOMPILETIME       jue jun 14 00:40:39 CEST 2018                    
    1UDIR                                                               
    1UDBN                                                               
    1UMAT    1EL                                                        
    2C                           201                                     1
 -1         1 0.00000E+00 0.00000E+00 0.00000E+00
 -1         2 1.00000E+00 0.00000E+00 0.00000E+00
 -1         3 1.00000E+00 1.00000E+00 0.00000E+00
 -1         4 0.00000E+00 1.00000E+00 0.00000E+00
 -1         9 2.50000E-01 0.00000E+00 0.00000E+00
 -1        10 5.00000E-01 0.00000E+00 0.00000E+00
 -1        11 7.50000E-01 0.00000E+00 0.00000E+00
 -1        12 1.00000E+00 2.50000E-01 0.00000E+00
 -1        13 1.00000E+00 5.00000E-01 0.00000E+00
 -1        14 1.00000E+00 7.50000E-01 0.00000E+00
 -1        15 7.50000E-01 1.00000E+00 0.00000E+00
 -1        16 5.00000E-01 1.00000E+00 0.00000E+00
 -1        17 2.50000E-01 1.00000E+00 0.00000E+00
 -1        18 0.00000E+00 7.50000E-01 0.00000E+00
 -1        19 0.00000E+00 5.00000E-01 0.00000E+00
 -1        20 0.00000E+00 2.50000E-01 0.00000E+00
 -1        33 1.00000E+00 0.00000E+00 5.00000E-01
 -1        34 1.00000E+00 0.00000E+00 1.00000E+00
 -1        35 1.00000E+00 0.00000E+00 1.50000E+00
 -1        36 1.00000E+00 0.00000E+00 2.00000E+00
 -1        37 1.00000E+00 0.00000E+00 2.50000E+00
 -1        38 1.00000E+00 0.00000E+00 3.00000E+00
 -1        39 1.00000E+00 0.00000E+00 3.50000E+00
 -1        40 1.00000E+00 0.00000E+00 4.00000E+00
 -1        41 1.00000E+00 0.00000E+00 4.50000E+00
 -1        42 1.00000E+00 0.00000E+00 5.00000E+00
 -1        43 1.00000E+00 0.00000E+00 5.50000E+00
 -1        44 1.00000E+00 0.00000E+00 6.00000E+00
 -1        51 0.00000E+00 0.00000E+00 6.00000E+00
 -1        52 0.00000E+00 0.00000E+00 5.50000E+00
 -1        53 0.00000E+00 0.00000E+00 5.00000E+00
 -1        54 0.00000E+00 0.00000E+00 4.50000E+00
 -1        55 0.00000E+00 0.00000E+00 4.00000E+00
 -1        56 0.00000E+00 0.00000E+00 3.50000E+00
 -1        57 0.00000E+00 0.00000E+00 3.00000E+00
 -1        58 0.00000E+00 0.00000E+00 2.50000E+00
 -1        59 0.00000E+00 0.00000E+00 2.00000E+00
 -1        60 0.00000E+00 0.00000E+00 1.50000E+00
 -1        61 0.00000E+00 0.00000E+00 1.00000E+00
 -1        62 0.00000E+00 0.00000E+00 5.00000E-01
 -1        63 1.00000E+00 1.00000E+00 5.00000E-01
 -1        64 1.00000E+00 1.00000E+00 1.00000E+00
 -1        65 1.00000E+00 1.00000E+00 1.50000E+00
 -1        66 1.00000E+00 1.00000E+00 2.00000E+00
 -1        67 1.00000E+00 1.00000E+00 2.50000E+00
 -1        68 1.00000E+00 1.00000E+00 3.00000E+00
 -1        69 1.00000E+00 1.00000E+00 3.50000E+00
 -1        70 1.00000E+00 1.00000E+00 4.00000E+00
 -1        71 1.00000E+00 1.00000E+00 4.50000E+00
 -1        72 1.00000E+00 1.00000E+00 5.00000E+00
 -1        73 1.00000E+00 1.00000E+00 5.50000E+00
 -1        74 1.00000E+00 1.00000E+00 6.00000E+00
 -1        78 0.00000E+00 1.00000E+00 5.00000E-01
 -1        79 0.00000E+00 1.00000E+00 1.00000E+00
 -1        80 0.00000E+00 1.00000E+00 1.50000E+00
 -1        81 0.00000E+00 1.00000E+00 2.00000E+00
 -1        82 0.00000E+00 1.00000E+00 2.50000E+00
 -1        83 0.00000E+00 1.00000E+00 3.00000E+00
 -1        84 0.00000E+00 1.00000E+00 3.50000E+00
 -1        85 0.00000E+00 1.00000E+00 4.00000E+00
 -1        86 0.00000E+00 1.00000E+00 4.50000E+00
 -1        87 0.00000E+00 1.00000E+00 5.00000E+00
 -1        88 0.00000E+00 1.00000E+00 5.50000E+00
 -1        89 0.00000E+00 1.00000E+00 6.00000E+00
 -1        93 5.00000E-01 2.50000E-01 0.00000E+00
 -1        94 2.50000E-01 5.00000E-01 0.00000E+00
 -1        95 5.00000E-01 5.00000E-01 0.00000E+00
 -1        96 7.50000E-01 5.00000E-01 0.00000E+00
 -1        97 5.00000E-01 7.50000E-01 0.00000E+00
 -1       103 5.00000E-01 0.00000E+00 5.00000E-01
 -1       104 2.50000E-01 0.00000E+00 1.00000E+00
 -1       105 5.00000E-01 0.00000E+00 1.00000E+00
 -1       106 7.50000E-01 0.00000E+00 1.00000E+00
 -1       107 5.00000E-01 0.00000E+00 1.50000E+00
 -1       108 2.50000E-01 0.00000E+00 2.00000E+00
 -1       109 5.00000E-01 0.00000E+00 2.00000E+00
 -1       110 7.50000E-01 0.00000E+00 2.00000E+00
 -1       111 5.00000E-01 0.00000E+00 2.50000E+00
 -1       112 2.50000E-01 0.00000E+00 3.00000E+00
 -1       113 5.00000E-01 0.00000E+00 3.00000E+00
 -1       114 7.50000E-01 0.00000E+00 3.00000E+00
 -1       115 5.00000E-01 0.00000E+00 3.50000E+00
 -1       116 2.50000E-01 0.00000E+00 4.00000E+00
 -1       117 5.00000E-01 0.00000E+00 4.00000E+00
 -1       118 7.50000E-01 0.00000E+00 4.00000E+00
 -1       119 5.00000E-01 0.00000E+00 4.50000E+00
 -1       120 2.50000E-01 0.00000E+00 5.00000E+00
 -1       121 5.00000E-01 0.00000E+00 5.00000E+00
 -1       122 7.50000E-01 0.00000E+00 5.00000E+00
 -1       123 5.00000E-01 0.00000E+00 5.50000E+00
 -1       124 2.50000E-01 0.00000E+00 6.00000E+00
 -1       125 5.00000E-01 0.00000E+00 6.00000E+00
 -1       126 7.50000E-01 0.00000E+00 6.00000E+00
 -1       132 1.00000E+00 5.00000E-01 5.00000E-01
 -1       133 1.00000E+00 2.50000E-01 1.00000E+00
 -1       134 1.00000E+00 5.00000E-01 1.00000E+00
 -1       135 1.00000E+00 7.50000E-01 1.00000E+00
 -1       136 1.00000E+00 5.00000E-01 1.50000E+00
 -1       137 1.00000E+00 2.50000E-01 2.00000E+00
 -1       138 1.00000E+00 5.00000E-01 2.00000E+00
 -1       139 1.00000E+00 7.50000E-01 2.00000E+00
 -1       140 1.00000E+00 5.00000E-01 2.50000E+00
 -1       141 1.00000E+00 2.50000E-01 3.00000E+00
 -1       142 1.00000E+00 5.00000E-01 3.00000E+00
 -1       143 1.00000E+00 7.50000E-01 3.00000E+00
 -1       144 1.00000E+00 5.00000E-01 3.50000E+00
 -1       145 1.00000E+00 2.50000E-01 4.00000E+00
 -1       146 1.00000E+00 5.00000E-01 4.00000E+00
 -1       147 1.00000E+00 7.50000E-01 4.00000E+00
 -1       148 1.00000E+00 5.00000E-01 4.50000E+00
 -1       149 1.00000E+00 2.50000E-01 5.00000E+00
 -1       150 1.00000E+00 5.00000E-01 5.00000E+00
 -1       151 1.00000E+00 7.50000E-01 5.00000E+00
 -1       152 1.00000E+00 5.00000E-01 5.50000E+00
 -1       153 1.00000E+00 2.50000E-01 6.00000E+00
 -1       154 1.00000E+00 5.00000E-01 6.00000E+00
 -1       155 1.00000E+00 7.50000E-01 6.00000E+00
 -1       161 5.00000E-01 1.00000E+00 5.00000E-01
 -1       162 7.50000E-01 1.00000E+00 1.00000E+00
 -1       163 5.00000E-01 1.00000E+00 1.00000E+00
 -1       164 2.50000E-01 1.00000E+00 1.00000E+00
 -1       165 5.00000E-01 1.00000E+00 1.50000E+00
 -1       166 7.50000E-01 1.00000E+00 2.00000E+00
 -1       167 5.00000E-01 1.00000E+00 2.00000E+00
 -1       168 2.50000E-01 1.00000E+00 2.00000E+00
 -1       169 5.00000E-01 1.00000E+00 2.50000E+00
 -1       170 7.50000E-01 1.00000E+00 3.00000E+00
 -1       171 5.00000E-01 1.00000E+00 3.00000E+00
 -1       172 2.50000E-01 1.00000E+00 3.00000E+00
 -1       173 5.00000E-01 1.00000E+00 3.50000E+00
 -1       174 7.50000E-01 1.00000E+00 4.00000E+00
 -1       175 5.00000E-01 1.00000E+00 4.00000E+00
 -1       176 2.50000E-01 1.00000E+00 4.00000E+00
 -1       177 5.00000E-01 1.00000E+00 4.50000E+00
 -1       178 7.50000E-01 1.00000E+00 5.00000E+00
 -1       179 5.00000E-01 1.00000E+00 5.00000E+00
 -1       180 2.50000E-01 1.00000E+00 5.00000E+00
 -1       181 5.00000E-01 1.00000E+00 5.50000E+00
 -1       182 7.50000E-01 1.00000E+00 6.00000E+00
 -1       183 5.00000E-01 1.00000E+00 6.00000E+00
 -1       184 2.50000E-01 1.00000E+00 6.00000E+00
 -1       190 0.00000E+00 5.00000E-01 5.00000E-01
 -1       191 0.00000E+00 7.50000E-01 1.00000E+00
 -1       192 0.00000E+00 5.00000E-01 1.00000E+00
 -1       193 0.00000E+00 2.50000E-01 1.00000E+00
 -1       194 0.00000E+00 5.00000E-01 1.50000E+00
 -1       195 0.00000E+00 7.50000E-01 2.00000E+00
 -1       196 0.00000E+00 5.00000E-01 2.00000E+00
 -1       197 0.00000E+00 2.50000E-01 2.00000E+00
 -1       198 0.00000E+00 5.00000E-01 2.50000E+00
 -1       199 0.00000E+00 7.50000E-01 3.00000E+00
 -1       200 0.00000E+00 5.00000E-01 3.00000E+00
 -1       201 0.00000E+00 2.50000E-01 3.00000E+00
 -1       202 0.00000E+00 5.00000E-01 3.50000E+00
 -1       203 0.00000E+00 7.50000E-01 4.00000E+00
 -1       204 0.00000E+00 5.00000E-01 4.00000E+00
 -1       205 0.00000E+00 2.50000E-01 4.00000E+00
 -1       206 0.00000E+00 5.00000E-01 4.50000E+00
 -1       207 0.00000E+00 7.50000E-01 5.00000E+00
 -1       208 0.00000E+00 5.00000E-01 5.00000E+00
 -1       209 0.00000E+00 2.50000E-01 5.00000E+00
 -1       210 0.00000E+00 5.00000E-01 5.50000E+00
 -1       211 0.00000E+00 7.50000E-01 6.00000E+00
 -1       212 0.00000E+00 5.00000E-01 6.00000E+00
 -1       213 0.00000E+00 2.50000E-01 6.00000E+00
 -1       219 5.00000E-01 5.00000E-01 5.00000E-01
 -1       220 5.00000E-01 2.50000E-01 1.00000E+00
 -1       221 2.50000E-01 5.00000E-01 1.00000E+00
 -1       222 5.00000E-01 5.00000E-01 1.00000E+00
 -1       223 7.50000E-01 5.00000E-01 1.00000E+00
 -1       224 5.00000E-01 7.50000E-01 1.00000E+00
 -1       225 5.00000E-01 5.00000E-01 1.50000E+00
 -1       226 5.00000E-01 2.50000E-01 2.00000E+00
 -1       227 2.50000E-01 5.00000E-01 2.00000E+00
 -1       228 5.00000E-01 5.00000E-01 2.00000E+00
 -1       229 7.50000E-01 5.00000E-01 2.00000E+00
 -1       230 5.00000E-01 7.50000E-01 2.00000E+00
 -1       231 5.00000E-01 5.00000E-01 2.50000E+00
 -1       232 5.00000E-01 2.50000E-01 3.00000E+00
 -1       233 2.50000E-01 5.00000E-01 3.00000E+00
 -1       234 5.00000E-01 5.00000E-01 3.00000E+00
 -1       235 7.50000E-01 5.00000E-01 3.00000E+00
 -1       236 5.00000E-01 7.50000E-01 3.00000E+00
 -1       237 5.00000E-01 5.00000E-01 3.50000E+00
 -1       238 5.00000E-01 2.50000E-01 4.00000E+00
 -1       239 2.50000E-01 5.00000E-01 4.00000E+00
 -1       240 5.00000E-01 5.00000E-01 4.00000E+00
 -1       241 7.50000E-01 5.00000E-01 4.00000E+00
 -1       242 5.00000E-01 7.50000E-01 4.00000E+00
 -1       243 5.00000E-01 5.00000E-01 4.50000E+00
 -1       244 5.00000E-01 2.50000E-01 5.00000E+00
 -1       245 2.50000E-01 5.00000E-01 5.00000E+00
 -1       246 5.00000E-01 5.00000E-01 5.00000E+00
 -1       247 7.50000E-01 5.00000E-01 5.00000E+00
 -1       248 5.00000E-01 7.50000E-01 5.00000E+00
 -1       249 5.00000E-01 5.00000E-01 5.50000E+00
 -1       250 5.00000E-01 2.50000E-01 6.00000E+00
 -1       251 2.50000E-01 5.00000E-01 6.00000E+00
 -1       252 5.00000E-01 5.00000E-01 6.00000E+00
 -1       253 7.50000E-01 5.00000E-01 6.00000E+00
 -1       254 5.00000E-01 7.50000E-01 6.00000E+00
 -3
    3C                            24                                     1
 -1         1    4    0    1
 -2         1        10        95        19        61       105       222       192         9        93
 -2        94        20        62       103       219       190       104       220       221       193
 -1         2    4    0    1
 -2        10         2        13        95       105        34       134       222        11        12
 -2        96        93       103        33       132       219       106       133       223       220
 -1         3    4    0    1
 -2        19        95        16         4       192       222       163        79        94        97
 -2        17        18       190       219       161        78       221       224       164       191
 -1         4    4    0    1
 -2        95        13         3        16       222       134        64       163        96        14
 -2        15        97       219       132        63       161       223       135       162       224
 -1         5    4    0    1
 -2        61       105       222       192        59       109       228       196       104       220
 -2       221       193        60       107       225       194       108       226       227       197
 -1         6    4    0    1
 -2       105        34       134       222       109        36       138       228       106       133
 -2       223       220       107        35       136       225       110       137       229       226
 -1         7    4    0    1
 -2       192       222       163        79       196       228       167        81       221       224
 -2       164       191       194       225       165        80       227       230       168       195
 -1         8    4    0    1
 -2       222       134        64       163       228       138        66       167       223       135
 -2       162       224       225       136        65       165       229       139       166       230
 -1         9    4    0    1
 -2        59       109       228       196        57       113       234       200       108       226
 -2       227       197        58       111       231       198       112       232       233       201
 -1        10    4    0    1
 -2       109        36       138       228       113        38       142       234       110       137
 -2       229       226       111        37       140       231       114       141       235       232
 -1        11    4    0    1
 -2       196       228       167        81       200       234       171        83       227       230
 -2       168       195       198       231       169        82       233       236       172       199
 -1        12    4    0    1
 -2       228       138        66       167       234       142        68       171       229       139
 -2       166       230       231       140        67       169       235       143       170       236
 -1        13    4    0    1
 -2        57       113       234       200        55       117       240       204       112       232
 -2       233       201        56       115       237       202       116       238       239       205
 -1        14    4    0    1
 -2       113        38       142       234       117        40       146       240       114       141
 -2       235       232       115        39       144       237       118       145       241       238
 -1        15    4    0    1
 -2       200       234       171        83       204       240       175        85       233       236
 -2       172       199       202       237       173        84       239       242       176       203
 -1        16    4    0    1
 -2       234       142        68       171       240       146        70       175       235       143
 -2       170       236       237       144        69       173       241       147       174       242
 -1        17    4    0    1
 -2        55       117       240       204        53       121       246       208       116       238
 -2       239       205        54       119       243       206       120       244       245       209
 -1        18    4    0    1
 -2       117        40       146       240       121        42       150       246       118       145
 -2       241       238       119        41       148       243       122       149       247       244
 -1        19    4    0    1
 -2       204       240       175        85       208       246       179        87       239       242
 -2       176       203       206       243       177        86       245       248       180       207
 -1        20    4    0    1
 -2       240       146        70       175       246       150        72       179       241       147
 -2       174       242       243       148        71       177       247       151       178       248
 -1        21    4    0    1
 -2        53       121       246       208        51       125       252       212       120       244
 -2       245       209        52       123       249       210       124       250       251       213
 -1        22    4    0    1
 -2       121        42       150       246       125        44       154       252       122       149
 -2       247       244       123        43       152       249       126       153       253       250
 -1        23    4    0    1
 -2       208       246       179        87       212       252       183        89       245       248
 -2       180       207       210       249       181        88       251       254       184       211
 -1        24    4    0    1
 -2       246       150        72       179       252       154        74       183       247       151
 -2       178       248       249       152        73       181       253       155       182       254
 -3
    1PSTEP                         1           1           1          
  100CL  101 5.00000E-03         201                     1    1           1
 -4  DISP        4    1
 -5  D1          1    2    1    0
 -5  D2          1    2    2    0
 -5  D3          1    2    3    0
 -5  ALL         1    2    0    0    1ALL
 -1         1 0.00000E+00 0.00000E+00 0.00000E+00
 -1         2 0.00000E+00 0.00000E+00 0.00000E+00
 -1         3 0.00000E+00 0.00000E+00 0.00000E+00
 -1         4 0.00000E+00 0.00000E+00 0.00000E+00
 -1         9 0.00000E+00 0.00000E+00 0.00000E+00
 -1        10 0.00000E+00 0.00000E+00 0.00000E+00
 -1        11 0.00000E+00 0.00000E+00 0.00000E+00
 -1        12 0.00000E+00 0.00000E+00 0.00000E+00
 -1        13 0.00000E+00 0.00000E+00 0.00000E+00
 -1        14 0.00000E+00 0.00000E+00 0.00000E+00
 -1        15 0.00000E+00 0.00000E+00 0.00000E+00
 -1        16 0.00000E+00 0.00000E+00 0.00000E+00
 -1        17 0.00000E+00 0.00000E+00 0.00000E+00
 -1        18 0.00000E+00 0.00000E+00 0.00000E+00
 -1        19 0.00000E+00 0.00000E+00 0.00000E+00
 -1        20 0.00000E+00 0.00000E+00 0.00000E+00
 -1        33 4.52905E-05-1.12932E-04-1.45678E-04
 -1        34 2.11152E-05-3.42757E-04-2.63961E-04
 -1        35 1.74747E-05-6.92321E-04-3.39855E-04
 -1        36 3.53423E-06-1.07460E-03-3.74211E-04
 -1        37-6.10625E-06-1.48953E-03-3.73035E-04
 -1        38-1.87805E-05-1.85976E-03-3.36562E-04
 -1        39-3.13564E-05-2.20927E-03-2.40149E-04
 -1        40-2.20803E-05-2.36669E-03-9.90078E-05
 -1        41-4.59041E-05-2.41470E-03-9.28088E-06
 -1        42-2.51912E-05-2.38277E-03-2.89498E-05
 -1        43 5.36425E-05-2.15051E-03 3.13175E-05
 -1        44 5.63833E-05-2.14619E-03 1.52712E-04
 -1        51-5.63752E-05-2.14618E-03 1.52699E-04
 -1        52-5.36422E-05-2.15051E-03 3.13154E-05
 -1        53 2.51933E-05-2.38277E-03-2.89488E-05
 -1        54 4.59037E-05-2.41471E-03-9.28067E-06
 -1        55 2.20813E-05-2.36669E-03-9.90077E-05
 -1        56 3.13564E-05-2.20927E-03-2.40149E-04
 -1        57 1.87810E-05-1.85976E-03-3.36562E-04
 -1        58 6.10627E-06-1.48953E-03-3.73035E-04
 -1        59-3.53401E-06-1.07460E-03-3.74210E-04
 -1        60-1.74747E-05-6.92321E-04-3.39855E-04
 -1        61-2.11151E-05-3.42757E-04-2.63961E-04
 -1        62-4.52905E-05-1.12932E-04-1.45678E-04
 -1        63-4.41571E-05-1.11848E-04 1.42865E-04
 -1        64-2.08026E-05-3.43003E-04 2.58024E-04
 -1        65-1.61798E-05-6.90592E-04 3.31160E-04
 -1        66-3.90848E-06-1.07747E-03 3.62001E-04
 -1        67 8.53797E-06-1.48626E-03 3.58785E-04
 -1        68 1.93230E-05-1.87344E-03 3.17917E-04
 -1        69 3.31211E-05-2.19775E-03 2.18179E-04
 -1        70 3.12759E-05-2.39976E-03 7.24780E-05
 -1        71 4.01987E-05-2.38582E-03-2.40259E-05
 -1        72-8.52629E-07-2.34868E-03-1.14621E-05
 -1        73-1.17311E-05-2.21465E-03-7.33415E-05
 -1        74-1.27074E-05-2.29298E-03-1.88565E-04
 -1        78 4.41572E-05-1.11848E-04 1.42865E-04
 -1        79 2.08026E-05-3.43003E-04 2.58024E-04
 -1        80 1.61799E-05-6.90592E-04 3.31160E-04
 -1        81 3.90843E-06-1.07747E-03 3.62001E-04
 -1        82-8.53777E-06-1.48626E-03 3.58785E-04
 -1        83-1.93232E-05-1.87344E-03 3.17917E-04
 -1        84-3.31207E-05-2.19775E-03 2.18180E-04
 -1        85-3.12765E-05-2.39975E-03 7.24780E-05
 -1        86-4.01979E-05-2.38582E-03-2.40261E-05
 -1        87 8.50942E-07-2.34868E-03-1.14631E-05
 -1        88 1.17313E-05-2.21465E-03-7.33394E-05
 -1        89 1.26999E-05-2.29297E-03-1.88552E-04
 -1        93 0.00000E+00 0.00000E+00 0.00000E+00
 -1        94 0.00000E+00 0.00000E+00 0.00000E+00
 -1        95 0.00000E+00 0.00000E+00 0.00000E+00
 -1        96 0.00000E+00 0.00000E+00 0.00000E+00
 -1        97 0.00000E+00 0.00000E+00 0.00000E+00
 -1       103 7.04173E-12-1.30643E-04-1.42768E-04
 -1       104-1.03951E-05-3.57833E-04-2.68673E-04
 -1       105-6.49872E-12-3.61459E-04-2.70841E-04
 -1       106 1.03951E-05-3.57833E-04-2.68674E-04
 -1       107 4.33845E-11-6.96256E-04-3.41168E-04
 -1       108-1.76621E-06-1.08209E-03-3.78347E-04
 -1       109-1.15082E-11-1.09446E-03-3.79008E-04
 -1       110 1.76630E-06-1.08209E-03-3.78347E-04
 -1       111 9.78422E-11-1.47317E-03-3.75451E-04
 -1       112 9.17510E-06-1.88491E-03-3.40095E-04
 -1       113-7.07558E-11-1.89459E-03-3.43694E-04
 -1       114-9.17492E-06-1.88491E-03-3.40095E-04
 -1       115 2.00472E-10-2.16637E-03-2.37861E-04
 -1       116 1.22140E-05-2.40208E-03-1.09563E-04
 -1       117-1.85485E-10-2.51976E-03-1.05188E-04
 -1       118-1.22137E-05-2.40208E-03-1.09563E-04
 -1       119 3.45762E-10-2.35064E-03-7.79526E-06
 -1       120 1.23481E-05-2.43334E-03-1.48355E-06
 -1       121-6.28148E-10-2.39239E-03-3.16971E-05
 -1       122-1.23474E-05-2.43334E-03-1.48342E-06
 -1       123 1.19184E-09-2.19723E-03 6.95196E-05
 -1       124-1.90643E-05-2.00333E-03 8.65829E-05
 -1       125 1.58101E-09-2.14522E-03 1.99989E-04
 -1       126 1.90693E-05-2.00334E-03 8.65880E-05
 -1       132 4.56959E-07-8.58725E-05-1.42457E-06
 -1       133 1.10334E-05-3.36655E-04-1.25558E-04
 -1       134 5.00415E-07-3.42081E-04-2.61820E-06
 -1       135-1.03425E-05-3.36884E-04 1.19942E-04
 -1       136 3.51099E-07-6.77229E-04-4.53479E-06
 -1       137 1.80343E-06-1.07965E-03-1.85176E-04
 -1       138 1.18075E-06-1.08153E-03-5.38420E-06
 -1       139-1.10814E-06-1.08067E-03 1.73709E-04
 -1       140-2.09154E-07-1.49110E-03-7.94053E-06
 -1       141-7.75843E-06-1.86933E-03-1.59871E-04
 -1       142 4.64025E-07-1.88727E-03-6.43872E-06
 -1       143 9.19694E-06-1.87784E-03 1.43899E-04
 -1       144-8.40592E-07-2.20718E-03-1.04697E-05
 -1       145-2.04782E-05-2.41399E-03-6.50782E-05
 -1       146-3.62560E-06-2.40004E-03-1.55250E-05
 -1       147 1.57277E-05-2.42474E-03 3.65176E-05
 -1       148 4.03880E-06-2.41149E-03-1.59375E-05
 -1       149 1.03759E-05-2.27428E-03-1.36878E-05
 -1       150 1.04076E-05-2.32351E-03-1.69167E-05
 -1       151-1.16419E-05-2.26455E-03-2.27806E-05
 -1       152-1.68139E-05-2.22213E-03-2.09584E-05
 -1       153-4.54303E-05-2.39950E-03 3.96477E-05
 -1       154-7.03783E-06-2.07047E-03-1.27381E-05
 -1       155 5.27223E-05-2.45051E-03-7.83247E-05
 -1       161-1.86329E-12-1.29870E-04 1.39841E-04
 -1       162-1.02256E-05-3.56983E-04 2.62867E-04
 -1       163 2.93574E-11-3.59853E-04 2.65173E-04
 -1       164 1.02256E-05-3.56983E-04 2.62867E-04
 -1       165 5.93151E-12-6.95697E-04 3.32344E-04
 -1       166-2.00591E-06-1.08101E-03 3.67042E-04
 -1       167 9.03164E-11-1.08824E-03 3.68621E-04
 -1       168 2.00598E-06-1.08101E-03 3.67042E-04
 -1       169 1.71010E-11-1.47685E-03 3.58977E-04
 -1       170 9.93819E-06-1.87890E-03 3.21765E-04
 -1       171 2.17739E-10-1.87407E-03 3.24857E-04
 -1       172-9.93808E-06-1.87890E-03 3.21765E-04
 -1       173-2.05384E-11-2.17556E-03 2.16202E-04
 -1       174 1.46220E-05-2.36612E-03 8.33810E-05
 -1       175 3.92205E-10-2.40131E-03 8.31280E-05
 -1       176-1.46218E-05-2.36612E-03 8.33808E-05
 -1       177-1.19989E-10-2.35068E-03-3.16891E-05
 -1       178 5.04605E-06-2.44042E-03-4.12709E-05
 -1       179 8.87243E-10-2.35036E-03-2.07793E-05
 -1       180-5.04632E-06-2.44042E-03-4.12707E-05
 -1       181-9.80833E-10-2.22451E-03-9.09665E-05
 -1       182-1.69861E-05-1.95547E-03-1.21172E-04
 -1       183-1.33073E-09-2.29240E-03-2.35233E-04
 -1       184 1.69816E-05-1.95546E-03-1.21167E-04
 -1       190-4.56951E-07-8.58725E-05-1.42456E-06
 -1       191 1.03425E-05-3.36884E-04 1.19942E-04
 -1       192-5.00388E-07-3.42081E-04-2.61818E-06
 -1       193-1.10334E-05-3.36655E-04-1.25558E-04
 -1       194-3.51048E-07-6.77229E-04-4.53476E-06
 -1       195 1.10815E-06-1.08067E-03 1.73709E-04
 -1       196-1.18067E-06-1.08153E-03-5.38417E-06
 -1       197-1.80328E-06-1.07965E-03-1.85176E-04
 -1       198 2.09265E-07-1.49110E-03-7.94050E-06
 -1       199-9.19694E-06-1.87784E-03 1.43899E-04
 -1       200-4.63876E-07-1.88727E-03-6.43869E-06
 -1       201 7.75875E-06-1.86933E-03-1.59871E-04
 -1       202 8.40772E-07-2.20718E-03-1.04697E-05
 -1       203-1.57279E-05-2.42474E-03 3.65174E-05
 -1       204 3.62582E-06-2.40004E-03-1.55250E-05
 -1       205 2.04788E-05-2.41399E-03-6.50780E-05
 -1       206-4.03861E-06-2.41149E-03-1.59375E-05
 -1       207 1.16412E-05-2.26454E-03-2.27804E-05
 -1       208-1.04075E-05-2.32351E-03-1.69167E-05
 -1       209-1.03747E-05-2.27427E-03-1.36880E-05
 -1       210 1.68141E-05-2.22212E-03-2.09584E-05
 -1       211-5.27268E-05-2.45051E-03-7.83197E-05
 -1       212 7.03815E-06-2.07047E-03-1.27381E-05
 -1       213 4.54350E-05-2.39950E-03 3.96426E-05
 -1       219 3.59131E-12-1.04489E-04-1.24439E-06
 -1       220 3.21331E-12-3.50560E-04-1.30149E-04
 -1       221-2.72529E-07-3.51855E-04-2.98769E-06
 -1       222 1.23007E-11-3.51027E-04-3.28802E-06
 -1       223 2.72554E-07-3.51855E-04-2.98770E-06
 -1       224 2.09552E-11-3.49649E-04 1.24263E-04
 -1       225 2.58079E-11-6.88315E-04-4.17288E-06
 -1       226 1.38991E-11-1.08467E-03-1.89568E-04
 -1       227-4.94055E-07-1.07740E-03-5.92497E-06
 -1       228 4.01000E-11-1.07401E-03-6.79988E-06
 -1       229 4.94138E-07-1.07740E-03-5.92499E-06
 -1       230 6.59529E-11-1.08190E-03 1.76888E-04
 -1       231 5.84389E-11-1.49387E-03-6.49239E-06
 -1       232 3.97045E-12-1.87481E-03-1.66634E-04
 -1       233-3.74125E-07-1.86981E-03-1.03345E-05
 -1       234 7.32302E-11-1.85381E-03-1.27621E-05
 -1       235 3.74274E-07-1.86981E-03-1.03346E-05
 -1       236 1.42447E-10-1.86281E-03 1.47388E-04
 -1       237 9.10054E-11-2.20988E-03-6.93350E-06
 -1       238-4.71579E-11-2.44940E-03-6.95146E-05
 -1       239 3.41772E-06-2.36391E-03-1.23434E-05
 -1       240 1.01130E-10-2.35154E-03-1.31064E-05
 -1       241-3.41751E-06-2.36391E-03-1.23434E-05
 -1       242 2.53926E-10-2.39537E-03 3.91973E-05
 -1       243 1.11810E-10-2.41842E-03-2.11429E-05
 -1       244-2.18164E-10-2.25217E-03-6.19052E-06
 -1       245-2.98716E-06-2.31833E-03-2.28246E-05
 -1       246 1.13909E-10-2.21726E-03-1.81859E-05
 -1       247 2.98737E-06-2.31833E-03-2.28246E-05
 -1       248 4.53628E-10-2.22548E-03-1.87777E-05
 -1       249 1.07230E-10-2.30231E-03-1.86367E-05
 -1       250 1.34886E-09-2.18012E-03 3.71464E-05
 -1       251-6.06383E-06-1.75124E-03 3.70035E-06
 -1       252 1.01161E-10-1.80585E-03-7.02731E-06
 -1       253 6.06402E-06-1.75125E-03 3.70039E-06
 -1       254-1.10573E-09-2.26915E-03-1.31655E-04
 -3
    1PSTEP                         2           2           1          
  100CL  102 1.00000E-02         201                     1    2           1
 -4  DISP        4    1
 -5  D1          1    2    1    0
 -5  D2          1    2    2    0
 -5  D3          1    2    3    0
 -5  ALL         1    2    0    0    1ALL
 -1         1 0.00000E+00 0.00000E+00 0.00000E+00
 -1         2 0.00000E+00 0.00000E+00 0.00000E+00
 -1         3 0.00000E+00 0.00000E+00 0.00000E+00
 -1         4 0.00000E+00 0.00000E+00 0.00000E+00
 -1         9 0.00000E+00 0.00000E+00 0.00000E+00
 -1        10 0.00000E+00 0.00000E+00 0.00000E+00
 -1        11 0.00000E+00 0.00000E+00 0.00000E+00
 -1        12 0.00000E+00 0.00000E+00 0.00000E+00
 -1        13 0.00000E+00 0.00000E+00 0.00000E+00
 -1        14 0.00000E+00 0.00000E+00 0.00000E+00
 -1        15 0.00000E+00 0.00000E+00 0.00000E+00
 -1        16 0.00000E+00 0.00000E+00 0.00000E+00
 -1        17 0.00000E+00 0.00000E+00 0.00000E+00
 -1        18 0.00000E+00 0.00000E+00 0.00000E+00
 -1        19 0.00000E+00 0.00000E+00 0.00000E+00
 -1        20 0.00000E+00 0.00000E+00 0.00000E+00
 -1        33-2.24070E-05 5.66602E-05 7.25398E-05
 -1        34-1.05132E-05 1.73779E-04 1.31419E-04
 -1        35-8.38113E-06 3.46906E-04 1.68195E-04
 -1        36-2.00516E-06 5.42541E-04 1.84461E-04
 -1        37 4.66380E-06 7.45080E-04 1.81913E-04
 -1        38 1.04067E-05 9.42340E-04 1.62703E-04
 -1        39 1.57418E-05 1.09347E-03 1.10317E-04
 -1        40 1.29637E-05 1.19731E-03 3.61719E-05
 -1        41 2.64624E-05 1.18765E-03-1.35765E-05
 -1        42 1.19683E-05 1.18878E-03 2.75344E-06
 -1        43-3.60558E-05 1.02090E-03-3.85827E-05
 -1        44-8.81229E-05 1.00983E-03-8.99629E-05
 -1        51 8.82989E-05 1.01000E-03-9.02540E-05
 -1        52 3.60559E-05 1.02090E-03-3.86336E-05
 -1        53-1.19238E-05 1.18882E-03 2.77965E-06
 -1        54-2.64775E-05 1.18764E-03-1.35716E-05
 -1        55-1.29444E-05 1.19733E-03 3.61734E-05
 -1        56-1.57461E-05 1.09347E-03 1.10313E-04
 -1        57-1.03994E-05 9.42347E-04 1.62706E-04
 -1        58-4.66609E-06 7.45077E-04 1.81913E-04
 -1        59 2.00834E-06 5.42544E-04 1.84462E-04
 -1        60 8.38037E-06 3.46905E-04 1.68195E-04
 -1        61 1.05142E-05 1.73780E-04 1.31420E-04
 -1        62 2.24068E-05 5.66600E-05 7.25395E-05
 -1        63 2.23608E-05 5.65784E-05-7.23810E-05
 -1        64 1.05014E-05 1.73698E-04-1.31089E-04
 -1        65 8.28018E-06 3.46936E-04-1.67729E-04
 -1        66 1.93089E-06 5.42767E-04-1.83875E-04
 -1        67-4.58134E-06 7.44652E-04-1.81131E-04
 -1        68-9.92524E-06 9.41526E-04-1.61538E-04
 -1        69-1.65702E-05 1.09463E-03-1.09174E-04
 -1        70-1.37748E-05 1.20105E-03-3.53109E-05
 -1        71-2.43798E-05 1.18232E-03 1.46273E-05
 -1        72-2.05219E-06 1.17406E-03 7.33823E-07
 -1        73 2.25085E-05 1.04243E-03 4.19034E-05
 -1        74 7.47328E-05 1.06550E-03 9.33001E-05
 -1        78-2.23605E-05 5.65782E-05-7.23808E-05