    1C
    1UUSER                                                              
    1UDATE              11.july.2018                                    
    1UTIME              15:01:06                                        
    1UHOST                                                              
    1UPGM               CalculiX                                        
    1UVERSION           Version 2.13                             
    1UCOMPILETIME       jue jun 14 00:40:39 CEST 2018                    
    1UDIR                                                               
    1UDBN                                                               
    1UMAT    1EL                                                        
    2C                           201                                     1
 -1         1 0.00000E+00 0.00000E+00 0.00000E+00
 -1         2 1.00000E+00 0.00000E+00 0.00000E+00
 -1         3 1.00000E+00 1.00000E+00 0.00000E+00
 -1         4 0.00000E+00 1.00000E+00 0.00000E+00
 -1         9 2.50000E-01 0.00000E+00 0.00000E+00
 -1        10 5.00000E-01 0.00000E+00 0.00000E+00
 -1        11 7.50000E-01 0.00000E+00 0.00000E+00
 -1        12 1.00000E+00 2.50000E-01 0.00000E+00
 -1        13 1.00000E+00 5.00000E-01 0.00000E+00
 -1        14 1.00000E+00 7.50000E-01 0.00000E+00
 -1        15 7.50000E-01 1.00000E+00 0.00000E+00
 -1        16 5.00000E-01 1.00000E+00 0.00000E+00
 -1        17 2.50000E-01 1.00000E+00 0.00000E+00
 -1        18 0.00000E+00 7.50000E-01 0.00000E+00
 -1        19 0.00000E+00 5.00000E-01 0.00000E+00
 -1        20 0.00000E+00 2.50000E-01 0.00000E+00
 -1        33 1.00000E+00 0.00000E+00 5.00000E-01
 -1        34 1.00000E+00 0.00000E+00 1.00000E+00
 -1        35 1.00000E+00 0.00000E+00 1.50000E+00
 -1        36 1.00000E+00 0.00000E+00 2.00000E+00
 -1        37 1.00000E+00 0.00000E+00 2.50000E+00
 -1        38 1.00000E+00 0.00000E+00 3.00000E+00
 -1        39 1.00000E+00 0.00000E+00 3.50000E+00
 -1        40 1.00000E+00 0.00000E+00 4.00000E+00
 -1        41 1.00000E+00 0.00000E+00 4.50000E+00
 -1        42 1.00000E+00 0.00000E+00 5.00000E+00
 -1        43 1.00000E+00 0.00000E+00 5.50000E+00
 -1        44 1.00000E+00 0.00000E+00 6.00000E+00
 -1        51 0.00000E+00 0.00000E+00 6.00000E+00
 -1        52 0.00000E+00 0.00000E+00 5.50000E+00
 -1        53 0.00000E+00 0.00000E+00 5.00000E+00
 -1        54 0.00000E+00 0.00000E+00 4.50000E+00
 -1        55 0.00000E+00 0.00000E+00 4.00000E+00
 -1        56 0.00000E+00 0.00000E+00 3.50000E+00
 -1        57 0.00000E+00 0.00000E+00 3.00000E+00
 -1        58 0.00000E+00 0.00000E+00 2.50000E+00
 -1        59 0.00000E+00 0.00000E+00 2.00000E+00
 -1        60 0.00000E+00 0.00000E+00 1.50000E+00
 -1        61 0.00000E+00 0.00000E+00 1.00000E+00
 -1        62 0.00000E+00 0.00000E+00 5.00000E-01
 -1        63 1.00000E+00 1.00000E+00 5.00000E-01
 -1        64 1.00000E+00 1.00000E+00 1.00000E+00
 -1        65 1.00000E+00 1.00000E+00 1.50000E+00
 -1        66 1.00000E+00 1.00000E+00 2.00000E+00
 -1        67 1.00000E+00 1.00000E+00 2.50000E+00
 -1        68 1.00000E+00 1.00000E+00 3.00000E+00
 -1        69 1.00000E+00 1.00000E+00 3.50000E+00
 -1        70 1.00000E+00 1.00000E+00 4.00000E+00
 -1        71 1.00000E+00 1.00000E+00 4.50000E+00
 -1        72 1.00000E+00 1.00000E+00 5.00000E+00
 -1        73 1.00000E+00 1.00000E+00 5.50000E+00
 -1        74 1.00000E+00 1.00000E+00 6.00000E+00
 -1        78 0.00000E+00 1.00000E+00 5.00000E-01
 -1        79 0.00000E+00 1.00000E+00 1.00000E+00
 -1        80 0.00000E+00 1.00000E+00 1.50000E+00
 -1        81 0.00000E+00 1.00000E+00 2.00000E+00
 -1        82 0.00000E+00 1.00000E+00 2.50000E+00
 -1        83 0.00000E+00 1.00000E+00 3.00000E+00
 -1        84 0.00000E+00 1.00000E+00 3.50000E+00
 -1        85 0.00000E+00 1.00000E+00 4.00000E+00
 -1        86 0.00000E+00 1.00000E+00 4.50000E+00
 -1        87 0.00000E+00 1.00000E+00 5.00000E+00
 -1        88 0.00000E+00 1.00000E+00 5.50000E+00
 -1        89 0.00000E+00 1.00000E+00 6.00000E+00
 -1        93 5.00000E-01 2.50000E-01 0.00000E+00
 -1        94 2.50000E-01 5.00000E-01 0.00000E+00
 -1        95 5.00000E-01 5.00000E-01 0.00000E+00
 -1        96 7.50000E-01 5.00000E-01 0.00000E+00
 -1        97 5.00000E-01 7.50000E-01 0.00000E+00
 -1       103 5.00000E-01 0.00000E+00 5.00000E-01
 -1       104 2.50000E-01 0.00000E+00 1.00000E+00
 -1       105 5.00000E-01 0.00000E+00 1.00000E+00
 -1       106 7.50000E-01 0.00000E+00 1.00000E+00
 -1       107 5.00000E-01 0.00000E+00 1.50000E+00
 -1       108 2.50000E-01 0.00000E+00 2.00000E+00
 -1       109 5.00000E-01 0.00000E+00 2.00000E+00
 -1       110 7.50000E-01 0.00000E+00 2.00000E+00
 -1       111 5.00000E-01 0.00000E+00 2.50000E+00
 -1       112 2.50000E-01 0.00000E+00 3.00000E+00
 -1       113 5.00000E-01 0.00000E+00 3.00000E+00
 -1       114 7.50000E-01 0.00000E+00 3.00000E+00
 -1       115 5.00000E-01 0.00000E+00 3.50000E+00
 -1       116 2.50000E-01 0.00000E+00 4.00000E+00
 -1       117 5.00000E-01 0.00000E+00 4.00000E+00
 -1       118 7.50000E-01 0.00000E+00 4.00000E+00
 -1       119 5.00000E-01 0.00000E+00 4.50000E+00
 -1       120 2.50000E-01 0.00000E+00 5.00000E+00
 -1       121 5.00000E-01 0.00000E+00 5.00000E+00
 -1       122 7.50000E-01 0.00000E+00 5.00000E+00
 -1       123 5.00000E-01 0.00000E+00 5.50000E+00
 -1       124 2.50000E-01 0.00000E+00 6.00000E+00
 -1       125 5.00000E-01 0.00000E+00 6.00000E+00
 -1       126 7.50000E-01 0.00000E+00 6.00000E+00
 -1       132 1.00000E+00 5.00000E-01 5.00000E-01
 -1       133 1.00000E+00 2.50000E-01 1.00000E+00
 -1       134 1.00000E+00 5.00000E-01 1.00000E+00
 -1       135 1.00000E+00 7.50000E-01 1.00000E+00
 -1       136 1.00000E+00 5.00000E-01 1.50000E+00
 -1       137 1.00000E+00 2.50000E-01 2.00000E+00
 -1       138 1.00000E+00 5.00000E-01 2.00000E+00
 -1       139 1.00000E+00 7.50000E-01 2.00000E+00
 -1       140 1.00000E+00 5.00000E-01 2.50000E+00
 -1       141 1.00000E+00 2.50000E-01 3.00000E+00
 -1       142 1.00000E+00 5.00000E-01 3.00000E+00
 -1       143 1.00000E+00 7.50000E-01 3.00000E+00
 -1       144 1.00000E+00 5.00000E-01 3.50000E+00
 -1       145 1.00000E+00 2.50000E-01 4.00000E+00
 -1       146 1.00000E+00 5.00000E-01 4.00000E+00
 -1       147 1.00000E+00 7.50000E-01 4.00000E+00
 -1       148 1.00000E+00 5.00000E-01 4.50000E+00
 -1       149 1.00000E+00 2.50000E-01 5.00000E+00
 -1       150 1.00000E+00 5.00000E-01 5.00000E+00
 -1       151 1.00000E+00 7.50000E-01 5.00000E+00
 -1       152 1.00000E+00 5.00000E-01 5.50000E+00
 -1       153 1.00000E+00 2.50000E-01 6.00000E+00
 -1       154 1.00000E+00 5.00000E-01 6.00000E+00
 -1       155 1.00000E+00 7.50000E-01 6.00000E+00
 -1       161 5.00000E-01 1.00000E+00 5.00000E-01
 -1       162 7.50000E-01 1.00000E+00 1.00000E+00
 -1       163 5.00000E-01 1.00000E+00 1.00000E+00
 -1       164 2.50000E-01 1.00000E+00 1.00000E+00
 -1       165 5.00000E-01 1.00000E+00 1.50000E+00
 -1       166 7.50000E-01 1.00000E+00 2.00000E+00
 -1       167 5.00000E-01 1.00000E+00 2.00000E+00
 -1       168 2.50000E-01 1.00000E+00 2.00000E+00
 -1       169 5.00000E-01 1.00000E+00 2.50000E+00
 -1       170 7.50000E-01 1.00000E+00 3.00000E+00
 -1       171 5.00000E-01 1.00000E+00 3.00000E+00
 -1       172 2.50000E-01 1.00000E+00 3.00000E+00
 -1       173 5.00000E-01 1.00000E+00 3.50000E+00
 -1       174 7.50000E-01 1.00000E+00 4.00000E+00
 -1       175 5.00000E-01 1.00000E+00 4.00000E+00
 -1       176 2.50000E-01 1.00000E+00 4.00000E+00
 -1       177 5.00000E-01 1.00000E+00 4.50000E+00
 -1       178 7.50000E-01 1.00000E+00 5.00000E+00
 -1       179 5.00000E-01 1.00000E+00 5.00000E+00
 -1       180 2.50000E-01 1.00000E+00 5.00000E+00
 -1       181 5.00000E-01 1.00000E+00 5.50000E+00
 -1       182 7.50000E-01 1.00000E+00 6.00000E+00
 -1       183 5.00000E-01 1.00000E+00 6.00000E+00
 -1       184 2.50000E-01 1.00000E+00 6.00000E+00
 -1       190 0.00000E+00 5.00000E-01 5.00000E-01
 -1       191 0.00000E+00 7.50000E-01 1.00000E+00
 -1       192 0.00000E+00 5.00000E-01 1.00000E+00
 -1       193 0.00000E+00 2.50000E-01 1.00000E+00
 -1       194 0.00000E+00 5.00000E-01 1.50000E+00
 -1       195 0.00000E+00 7.50000E-01 2.00000E+00
 -1       196 0.00000E+00 5.00000E-01 2.00000E+00
 -1       197 0.00000E+00 2.50000E-01 2.00000E+00
 -1       198 0.00000E+00 5.00000E-01 2.50000E+00
 -1       199 0.00000E+00 7.50000E-01 3.00000E+00
 -1       200 0.00000E+00 5.00000E-01 3.00000E+00
 -1       201 0.00000E+00 2.50000E-01 3.00000E+00
 -1       202 0.00000E+00 5.00000E-01 3.50000E+00
 -1       203 0.00000E+00 7.50000E-01 4.00000E+00
 -1       204 0.00000E+00 5.00000E-01 4.00000E+00
 -1       205 0.00000E+00 2.50000E-01 4.00000E+00
 -1       206 0.00000E+00 5.00000E-01 4.50000E+00
 -1       207 0.00000E+00 7.50000E-01 5.00000E+00
 -1       208 0.00000E+00 5.00000E-01 5.00000E+00
 -1       209 0.00000E+00 2.50000E-01 5.00000E+00
 -1       210 0.00000E+00 5.00000E-01 5.50000E+00
 -1       211 0.00000E+00 7.50000E-01 6.00000E+00
 -1       212 0.00000E+00 5.00000E-01 6.00000E+00
 -1       213 0.00000E+00 2.50000E-01 6.00000E+00
 -1       219 5.00000E-01 5.00000E-01 5.00000E-01
 -1       220 5.00000E-01 2.50000E-01 1.00000E+00
 -1       221 2.50000E-01 5.00000E-01 1.00000E+00
 -1       222 5.00000E-01 5.00000E-01 1.00000E+00
 -1       223 7.50000E-01 5.00000E-01 1.00000E+00
 -1       224 5.00000E-01 7.50000E-01 1.00000E+00
 -1       225 5.00000E-01 5.00000E-01 1.50000E+00
 -1       226 5.00000E-01 2.50000E-01 2.00000E+00
 -1       227 2.50000E-01 5.00000E-01 2.00000E+00
 -1       228 5.00000E-01 5.00000E-01 2.00000E+00
 -1       229 7.50000E-01 5.00000E-01 2.00000E+00
 -1       230 5.00000E-01 7.50000E-01 2.00000E+00
 -1       231 5.00000E-01 5.00000E-01 2.50000E+00
 -1       232 5.00000E-01 2.50000E-01 3.00000E+00
 -1       233 2.50000E-01 5.00000E-01 3.00000E+00
 -1       234 5.00000E-01 5.00000E-01 3.00000E+00
 -1       235 7.50000E-01 5.00000E-01 3.00000E+00
 -1       236 5.00000E-01 7.50000E-01 3.00000E+00
 -1       237 5.00000E-01 5.00000E-01 3.50000E+00
 -1       238 5.00000E-01 2.50000E-01 4.00000E+00
 -1       239 2.50000E-01 5.00000E-01 4.00000E+00
 -1       240 5.00000E-01 5.00000E-01 4.00000E+00
 -1       241 7.50000E-01 5.00000E-01 4.00000E+00
 -1       242 5.00000E-01 7.50000E-01 4.00000E+00
 -1       243 5.00000E-01 5.00000E-01 4.50000E+00
 -1       244 5.00000E-01 2.50000E-01 5.00000E+00
 -1       245 2.50000E-01 5.00000E-01 5.00000E+00
 -1       246 5.00000E-01 5.00000E-01 5.00000E+00
 -1       247 7.50000E-01 5.00000E-01 5.00000E+00
 -1       248 5.00000E-01 7.50000E-01 5.00000E+00
 -1       249 5.00000E-01 5.00000E-01 5.50000E+00
 -1       250 5.00000E-01 2.50000E-01 6.00000E+00
 -1       251 2.50000E-01 5.00000E-01 6.00000E+00
 -1       252 5.00000E-01 5.00000E-01 6.00000E+00
 -1       253 7.50000E-01 5.00000E-01 6.00000E+00
 -1       254 5.00000E-01 7.50000E-01 6.00000E+00
 -3
    3C                            24                                     1
 -1         1    4    0    1
 -2         1        10        95        19        61       105       222       192         9        93
 -2        94        20        62       103       219       190       104       220       221       193
 -1         2    4    0    1
 -2        10         2        13        95       105        34       134       222        11        12
 -2        96        93       103        33       132       219       106       133       223       220
 -1         3    4    0    1
 -2        19        95        16         4       192       222       163        79        94        97
 -2        17        18       190       219       161        78       221       224       164       191
 -1         4    4    0    1
 -2        95        13         3        16       222       134        64       163        96        14
 -2        15        97       219       132        63       161       223       135       162       224
 -1         5    4    0    1
 -2        61       105       222       192        59       109       228       196       104       220
 -2       221       193        60       107       225       194       108       226       227       197
 -1         6    4    0    1
 -2       105        34       134       222       109        36       138       228       106       133
 -2       223       220       107        35       136       225       110       137       229       226
 -1         7    4    0    1
 -2       192       222       163        79       196       228       167        81       221       224
 -2       164       191       194       225       165        80       227       230       168       195
 -1         8    4    0    1
 -2       222       134        64       163       228       138        66       167       223       135
 -2       162       224       225       136        65       165       229       139       166       230
 -1         9    4    0    1
 -2        59       109       228       196        57       113       234       200       108       226
 -2       227       197        58       111       231       198       112       232       233       201
 -1        10    4    0    1
 -2       109        36       138       228       113        38       142       234       110       137
 -2       229       226       111        37       140       231       114       141       235       232
 -1        11    4    0    1
 -2       196       228       167        81       200       234       171        83       227       230
 -2       168       195       198       231       169        82       233       236       172       199
 -1        12    4    0    1
 -2       228       138        66       167       234       142        68       171       229       139
 -2       166       230       231       140        67       169       235       143       170       236
 -1        13    4    0    1
 -2        57       113       234       200        55       117       240       204       112       232
 -2       233       201        56       115       237       202       116       238       239       205
 -1        14    4    0    1
 -2       113        38       142       234       117        40       146       240       114       141
 -2       235       232       115        39       144       237       118       145       241       238
 -1        15    4    0    1
 -2       200       234       171        83       204       240       175        85       233       236
 -2       172       199       202       237       173        84       239       242       176       203
 -1        16    4    0    1
 -2       234       142        68       171       240       146        70       175       235       143
 -2       170       236       237       144        69       173       241       147       174       242
 -1        17    4    0    1
 -2        55       117       240       204        53       121       246       208       116       238
 -2       239       205        54       119       243       206       120       244       245       209
 -1        18    4    0    1
 -2       117        40       146       240       121        42       150       246       118       145
 -2       241       238       119        41       148       243       122       149       247       244
 -1        19    4    0    1
 -2       204       240       175        85       208       246       179        87       239       242
 -2       176       203       206       243       177        86       245       248       180       207
 -1        20    4    0    1
 -2       240       146        70       175       246       150        72       179       241       147
 -2       174       242       243       148        71       177       247       151       178       248
 -1        21    4    0    1
 -2        53       121       246       208        51       125       252       212       120       244
 -2       245       209        52       123       249       210       124       250       251       213
 -1        22    4    0    1
 -2       121        42       150       246       125        44       154       252       122       149
 -2       247       244       123        43       152       249       126       153       253       250
 -1        23    4    0    1
 -2       208       246       179        87       212       252       183        89       245       248
 -2       180       207       210       249       181        88       251       254       184       211
 -1        24    4    0    1
 -2       246       150        72       179       252       154        74       183       247       151
 -2       178       248       249       152        73       181       253       155       182       254
 -3
    1PSTEP                         1           1           1          
  100CL  101 5.00000E-03         201                     1    1           1
 -4  DISP        4    1
 -5  D1          1    2    1    0
 -5  D2          1    2    2    0
 -5  D3          1    2    3    0
 -5  ALL         1    2    0    0    1ALL
 -1         1 0.00000E+00 0.00000E+00 0.00000E+00
 -1         2 0.00000E+00 0.00000E+00 0.00000E+00
 -1         3 0.00000E+00 0.00000E+00 0.00000E+00
 -1         4 0.00000E+00 0.00000E+00 0.00000E+00
 -1         9 0.00000E+00 0.00000E+00 0.00000E+00
 -1        10 0.00000E+00 0.00000E+00 0.00000E+00
 -1        11 0.00000E+00 0.00000E+00 0.00000E+00
 -1        12 0.00000E+00 0.00000E+00 0.00000E+00
 -1        13 0.00000E+00 0.00000E+00 0.00000E+00
 -1        14 0.00000E+00 0.00000E+00 0.00000E+00
 -1        15 0.00000E+00 0.00000E+00 0.00000E+00
 -1        16 0.00000E+00 0.00000E+00 0.00000E+00
 -1        17 0.00000E+00 0.00000E+00 0.00000E+00
 -1        18 0.00000E+00 0.00000E+00 0.00000E+00
 -1        19 0.00000E+00 0.00000E+00 0.00000E+00
 -1        20 0.00000E+00 0.00000E+00 0.00000E+00
 -1        33 6.38633E-05-1.55794E-04-2.04783E-04
 -1        34 3.13021E-05-4.82971E-04-3.75042E-04
 -1        35 2.56794E-05-9.71576E-04-4.84426E-04
 -1        36 8.30311E-06-1.53097E-03-5.42038E-04
 -1        37-5.55258E-06-2.11408E-03-5.49200E-04
 -1        38-2.21706E-05-2.70221E-03-5.21102E-04
 -1        39-4.28438E-05-3.19683E-03-3.83396E-04
 -1        40-4.15765E-05-3.54879E-03-2.12418E-04
 -1        41-4.45980E-05-3.58710E-03-6.96288E-05
 -1        42-7.53927E-05-3.77473E-03-1.51566E-04
 -1        43 7.20096E-05-3.44933E-03 1.10461E-04
 -1        44-3.28261E-05-3.40199E-03 4.49689E-04
 -1        51 3.26813E-05-3.40214E-03 4.49744E-04
 -1        52-7.27729E-05-3.44932E-03 1.10607E-04
 -1        53 7.46032E-05-3.77474E-03-1.51449E-04
 -1        54 4.36386E-05-3.58707E-03-6.96024E-05
 -1        55 4.07136E-05-3.54877E-03-2.12457E-04
 -1        56 4.20136E-05-3.19682E-03-3.83487E-04
 -1        57 2.14845E-05-2.70220E-03-5.21217E-04
 -1        58 4.98805E-06-2.11407E-03-5.49337E-04
 -1        59-8.70159E-06-1.53097E-03-5.42176E-04
 -1        60-2.59405E-05-9.71581E-04-4.84553E-04
 -1        61-3.14288E-05-4.82979E-04-3.75139E-04
 -1        62-6.39061E-05-1.55811E-04-2.04837E-04
 -1        63-6.26511E-05-1.54083E-04 2.01271E-04
 -1        64-3.11879E-05-4.82467E-04 3.67522E-04
 -1        65-2.36889E-05-9.70880E-04 4.73808E-04
 -1        66-8.62573E-06-1.53704E-03 5.27799E-04
 -1        67 5.42478E-06-2.10506E-03 5.31701E-04
 -1        68 1.60929E-05-2.70439E-03 4.95479E-04
 -1        69 5.57914E-05-3.20431E-03 3.55852E-04
 -1        70 5.98267E-05-3.63345E-03 1.85434E-04
 -1        71 2.91833E-06-3.47715E-03 3.74162E-05
 -1        72-6.92112E-05-3.54215E-03 8.40162E-05
 -1        73 1.52172E-04-3.81435E-03-1.93869E-04
 -1        74 2.28412E-04-4.24609E-03-5.00659E-04
 -1        78 6.26088E-05-1.54066E-04 2.01217E-04
 -1        79 3.10628E-05-4.82458E-04 3.67425E-04
 -1        80 2.34295E-05-9.70872E-04 4.73682E-04
 -1        81 8.23091E-06-1.53704E-03 5.27662E-04
 -1        82-5.98669E-06-2.10506E-03 5.31564E-04
 -1        83-1.67725E-05-2.70439E-03 4.95364E-04
 -1        84-5.66181E-05-3.20432E-03 3.55759E-04
 -1        85-6.06782E-05-3.63347E-03 1.85394E-04
 -1        86-3.87737E-06-3.47718E-03 3.74444E-05
 -1        87 6.84435E-05-3.54214E-03 8.41488E-05
 -1        88-1.52934E-04-3.81435E-03-1.93740E-04
 -1        89-2.28528E-04-4.24595E-03-5.00618E-04
 -1        93 0.00000E+00 0.00000E+00 0.00000E+00
 -1        94 0.00000E+00 0.00000E+00 0.00000E+00
 -1        95 0.00000E+00 0.00000E+00 0.00000E+00
 -1        96 0.00000E+00 0.00000E+00 0.00000E+00
 -1        97 0.00000E+00 0.00000E+00 0.00000E+00
 -1       103-1.60257E-08-1.82238E-04-2.00998E-04
 -1       104-1.58190E-05-5.01908E-04-3.80906E-04
 -1       105-6.52910E-08-5.03991E-04-3.83383E-04
 -1       106 1.56925E-05-5.01904E-04-3.80860E-04
 -1       107-1.26456E-07-9.82427E-04-4.87680E-04
 -1       108-3.21403E-06-1.53242E-03-5.45638E-04
 -1       109-2.06066E-07-1.54209E-03-5.44381E-04
 -1       110 2.80848E-06-1.53242E-03-5.45572E-04
 -1       111-2.78185E-07-2.10646E-03-5.52313E-04
 -1       112 5.75169E-06-2.72227E-03-5.22523E-04
 -1       113-3.60910E-07-2.71210E-03-5.23083E-04
 -1       114-6.45575E-06-2.72227E-03-5.22465E-04
 -1       115-4.08218E-07-3.16403E-03-3.96584E-04
 -1       116 3.82403E-05-3.52438E-03-2.04743E-04
 -1       117-4.68785E-07-3.64429E-03-1.82016E-04
 -1       118-3.91452E-05-3.52439E-03-2.04735E-04
 -1       119-4.58107E-07-3.56103E-03-6.36879E-05
 -1       120-2.60025E-05-3.91849E-03-1.13627E-04
 -1       121-4.81526E-07-3.74934E-03-1.16479E-04
 -1       122 2.51304E-05-3.91849E-03-1.13649E-04
 -1       123-3.52743E-07-3.50968E-03-4.59676E-05
 -1       124 2.28867E-04-2.96713E-03 4.28989E-04
 -1       125-2.40174E-07-3.64157E-03 4.51022E-04
 -1       126-2.29202E-04-2.96708E-03 4.28824E-04
 -1       132 7.05431E-07-1.18859E-04-1.65458E-06
 -1       133 1.61311E-05-4.70170E-04-1.78310E-04
 -1       134 8.27035E-07-4.74498E-04-3.00059E-06
 -1       135-1.54906E-05-4.70291E-04 1.71333E-04
 -1       136-2.27155E-07-9.54742E-04-5.68509E-06
 -1       137 4.65983E-06-1.52842E-03-2.69413E-04
 -1       138 3.62260E-07-1.51941E-03-7.43381E-06
 -1       139-3.86593E-06-1.52996E-03 2.55518E-04
 -1       140 1.29662E-06-2.12932E-03-9.54229E-06
 -1       141-1.07623E-05-2.68296E-03-2.44909E-04
 -1       142 4.96996E-06-2.68710E-03-5.85065E-06
 -1       143 1.08172E-05-2.68979E-03 2.24163E-04
 -1       144-8.65926E-06-3.22658E-03-1.29986E-05
 -1       145-2.14062E-05-3.56827E-03-1.35056E-04
 -1       146-1.31962E-05-3.46245E-03-2.42786E-05
 -1       147 1.89666E-05-3.58970E-03 1.02481E-04
 -1       148 2.48443E-05-3.69019E-03-2.41699E-05
 -1       149-3.56745E-05-3.41059E-03-4.63620E-05
 -1       150 8.09018E-05-3.42926E-03-5.31273E-06
 -1       151 2.71134E-05-3.35642E-03-1.95534E-06
 -1       152-1.19007E-04-3.75256E-03 7.39318E-06
 -1       153 5.57326E-05-3.64678E-03 1.88922E-04
 -1       154-1.24013E-04-2.44064E-03-2.32198E-05
 -1       155-4.05784E-05-3.85123E-03-2.37301E-04
 -1       161-1.56872E-08-1.81004E-04 1.97175E-04
 -1       162-1.55252E-05-5.01195E-04 3.73865E-04
 -1       163-6.47870E-08-5.01555E-04 3.75954E-04
 -1       164 1.53999E-05-5.01191E-04 3.73819E-04
 -1       165-1.25337E-07-9.82392E-04 4.77128E-04
 -1       166-3.93066E-06-1.52988E-03 5.31069E-04
 -1       167-2.05137E-07-1.53774E-03 5.32818E-04
 -1       168 3.52784E-06-1.52988E-03 5.31003E-04
 -1       169-2.76178E-07-2.10750E-03 5.31079E-04
 -1       170 6.31660E-06-2.72149E-03 5.01382E-04
 -1       171-3.59962E-07-2.68159E-03 4.96730E-04
 -1       172-7.01637E-06-2.72150E-03 5.01324E-04
 -1       173-4.05101E-07-3.18383E-03 3.70895E-04
 -1       174 3.48270E-05-3.46841E-03 1.71162E-04
 -1       175-4.68733E-07-3.55932E-03 1.68606E-04
 -1       176-3.57264E-05-3.46842E-03 1.71155E-04
 -1       177-4.52977E-07-3.52171E-03 1.74310E-05
 -1       178-5.23778E-05-4.00531E-03 6.92796E-05
 -1       179-4.85318E-07-3.57582E-03 4.64763E-05
 -1       180 5.15133E-05-4.00531E-03 6.93011E-05
 -1       181-3.45646E-07-3.69707E-03-3.42752E-05
 -1       182 1.59742E-04-2.60452E-03-4.71550E-04
 -1       183-2.62723E-07-4.34089E-03-4.81851E-04
 -1       184-1.60085E-04-2.60447E-03-4.71360E-04
 -1       190-7.53651E-07-1.18859E-04-1.70730E-06
 -1       191 1.53574E-05-4.70286E-04 1.71233E-04
 -1       192-9.64491E-07-4.74497E-04-3.10157E-06
 -1       193-1.62652E-05-4.70173E-04-1.78409E-04
 -1       194-3.13128E-08-9.54741E-04-5.81048E-06
 -1       195 3.46069E-06-1.52996E-03 2.55378E-04
 -1       196-7.78257E-07-1.51941E-03-7.57507E-06
 -1       197-5.06688E-06-1.52842E-03-2.69553E-04
 -1       198-1.84407E-06-2.12932E-03-9.68006E-06
 -1       199-1.15182E-05-2.68979E-03 2.24042E-04
 -1       200-5.69270E-06-2.68710E-03-5.98023E-06
 -1       201 1.00580E-05-2.68295E-03-2.45030E-04
 -1       202 7.86083E-06-3.22658E-03-1.30763E-05
 -1       203-1.98691E-05-3.58971E-03 1.02436E-04
 -1       204 1.22370E-05-3.46244E-03-2.43170E-05
 -1       205 2.04984E-05-3.56826E-03-1.35101E-04
 -1       206-2.56944E-05-3.69019E-03-2.41677E-05
 -1       207-2.80131E-05-3.35641E-03-1.86719E-06
 -1       208-8.19393E-05-3.42925E-03-5.30241E-06
 -1       209 3.47631E-05-3.41058E-03-4.62773E-05
 -1       210 1.18340E-04-3.75255E-03 7.71599E-06
 -1       211 4.00002E-05-3.85115E-03-2.37014E-04
 -1       212 1.23024E-04-2.44062E-03-2.25886E-05
 -1       213-5.63219E-05-3.64686E-03 1.89197E-04
 -1       219-1.97466E-08-1.44548E-04-1.49746E-06
 -1       220-6.58310E-08-4.90047E-04-1.84014E-04
 -1       221-4.82848E-07-4.91569E-04-3.78622E-06
 -1       222-6.44347E-08-4.93347E-04-3.95270E-06
 -1       223 3.51602E-07-4.91570E-04-3.73835E-06
 -1       224-6.55780E-08-4.88677E-04 1.76760E-04
 -1       225-1.29792E-07-9.66244E-04-5.31700E-06
 -1       226-2.02028E-07-1.53573E-03-2.73188E-04
 -1       227-6.03769E-07-1.52170E-03-7.21809E-06
 -1       228-1.97936E-07-1.52479E-03-8.67693E-06
 -1       229 1.98502E-07-1.52170E-03-7.14849E-06
 -1       230-2.01570E-07-1.53398E-03 2.57475E-04
 -1       231-2.82109E-07-2.12648E-03-7.88557E-06
 -1       232-3.48774E-07-2.69232E-03-2.50364E-04
 -1       233-2.41052E-06-2.68765E-03-1.30416E-05
 -1       234-3.37705E-07-2.68737E-03-1.45550E-05
 -1       235 1.70843E-06-2.68765E-03-1.29830E-05
 -1       236-3.48270E-07-2.67532E-03 2.27146E-04
 -1       237-4.18471E-07-3.19401E-03-9.66950E-06
 -1       238-4.43826E-07-3.61502E-03-1.21868E-04
 -1       239 4.84292E-06-3.45711E-03-1.51852E-05
 -1       240-4.20384E-07-3.49100E-03-1.99938E-05
 -1       241-5.73841E-06-3.45711E-03-1.51512E-05
 -1       242-4.43914E-07-3.57671E-03 8.52722E-05
 -1       243-4.82419E-07-3.65563E-03-2.24466E-05
 -1       244-4.24581E-07-3.54224E-03-2.37085E-05
 -1       245-3.04048E-05-3.62065E-03-2.62608E-05
 -1       246-3.73350E-07-3.67695E-03-2.13931E-05
 -1       247 2.94905E-05-3.62065E-03-2.63417E-05
 -1       248-4.26150E-07-3.45870E-03-8.45570E-06
 -1       249-4.21908E-07-3.51180E-03-1.32508E-05
 -1       250-2.07008E-07-4.08627E-03 1.79843E-04
 -1       251 2.25783E-05-2.56087E-03-1.03017E-05
 -1       252-1.74945E-07-3.21648E-03-6.53853E-06
 -1       253-2.32090E-05-2.56088E-03-1.03392E-05
 -1       254-2.20504E-07-4.41099E-03-2.59709E-04
 -3
    1PSTEP                         2           2           1          
  100CL  102 1.00000E-02         201                     1    2           1
 -4  DISP        4    1
 -5  D1          1    2    1    0
 -5  D2          1    2    2    0
 -5  D3          1    2    3    0
 -5  ALL         1    2    0    0    1ALL
 -1         1 0.00000E+00 0.00000E+00 0.00000E+00
 -1         2 0.00000E+00 0.00000E+00 0.00000E+00
 -1         3 0.00000E+00 0.00000E+00 0.00000E+00
 -1         4 0.00000E+00 0.00000E+00 0.00000E+00
 -1         9 0.00000E+00 0.00000E+00 0.00000E+00
 -1        10 0.00000E+00 0.00000E+00 0.00000E+00
 -1        11 0.00000E+00 0.00000E+00 0.00000E+00
 -1        12 0.00000E+00 0.00000E+00 0.00000E+00
 -1        13 0.00000E+00 0.00000E+00 0.00000E+00
 -1        14 0.00000E+00 0.00000E+00 0.00000E+00
 -1        15 0.00000E+00 0.00000E+00 0.00000E+00
 -1        16 0.00000E+00 0.00000E+00 0.00000E+00
 -1        17 0.00000E+00 0.00000E+00 0.00000E+00
 -1        18 0.00000E+00 0.00000E+00 0.00000E+00
 -1        19 0.00000E+00 0.00000E+00 0.00000E+00
 -1        20 0.00000E+00 0.00000E+00 0.00000E+00
 -1        33-3.19837E-05 7.91543E-05 1.02980E-04
 -1        34-1.54231E-05 2.44806E-04 1.87695E-04
 -1        35-1.25639E-05 4.92613E-04 2.42658E-04
 -1        36-4.23443E-06 7.74384E-04 2.69977E-04
 -1        37 4.42734E-06 1.07163E-03 2.71770E-04
 -1        38 1.36832E-05 1.36734E-03 2.50310E-04
 -1        39 2.21404E-05 1.60985E-03 1.85140E-04
 -1        40 1.61145E-05 1.78478E-03 9.23088E-05
 -1        41 3.15402E-05 1.81315E-03 2.06534E-05
 -1        42 3.95883E-05 1.86498E-03 1.19813E-05
 -1        43-2.14875E-05 1.71562E-03-7.81524E-05
 -1        44-1.18584E-04 1.63843E-03-2.34011E-04
 -1        51 1.20564E-04 1.63650E-03-2.33688E-04
 -1        52 2.32313E-05 1.71502E-03-7.80433E-05
 -1        53-3.86098E-05 1.86510E-03 1.13162E-05
 -1        54-3.02773E-05 1.81328E-03 2.05925E-05
 -1        55-1.49755E-05 1.78479E-03 9.25767E-05
 -1        56-2.10625E-05 1.60979E-03 1.85319E-04
 -1        57-1.28733E-05 1.36738E-03 2.50447E-04
 -1        58-3.75898E-06 1.07165E-03 2.71946E-04
 -1        59 4.68948E-06 7.74408E-04 2.70163E-04
 -1        60 1.28626E-05 4.92623E-04 2.42813E-04
 -1        61 1.55599E-05 2.44825E-04 1.87808E-04
 -1        62 3.20293E-05 7.91759E-05 1.03042E-04
 -1        63 3.20105E-05 7.91681E-05-1.03018E-04
 -1        64 1.55563E-05 2.44798E-04-1.87746E-04
 -1        65 1.29275E-05 4.92569E-04-2.42749E-04
 -1        66 4.76333E-06 7.74445E-04-2.70093E-04
 -1        67-4.09922E-06 1.07184E-03-2.71842E-04
 -1        68-1.32005E-05 1.36746E-03-2.50160E-04
 -1        69-1.95388E-05 1.60858E-03-1.85131E-04
 -1        70-1.25586E-05 1.78406E-03-9.25958E-05
 -1        71-3.74108E-05 1.81851E-03-2.06847E-05
 -1        72-4.77077E-05 1.87016E-03-9.99649E-06
 -1        73 5.33883E-05 1.69045E-03 7.95111E-05
 -1        74 1.81117E-04 1.59880E-03 2.33926E-04
 -1        78-3.19586E-05 7.91480E-05-1.02953E-04