    1C
    1UUSER                                                              
    1UDATE              11.july.2018                                    
    1UTIME              15:05:14                                        
    1UHOST                                                              
    1UPGM               CalculiX                                        
    1UVERSION           Version 2.13                             
    1UCOMPILETIME       jue jun 14 00:40:39 CEST 2018                    
    1UDIR                                                               
    1UDBN                                                               
    1UMAT    1EL                                                        
    2C                           201                                     1
 -1         1 0.00000E+00 0.00000E+00 0.00000E+00
 -1         2 1.00000E+00 0.00000E+00 0.00000E+00
 -1         3 1.00000E+00 1.00000E+00 0.00000E+00
 -1         4 0.00000E+00 1.00000E+00 0.00000E+00
 -1         9 2.50000E-01 0.00000E+00 0.00000E+00
 -1        10 5.00000E-01 0.00000E+00 0.00000E+00
 -1        11 7.50000E-01 0.00000E+00 0.00000E+00
 -1        12 1.00000E+00 2.50000E-01 0.00000E+00
 -1        13 1.00000E+00 5.00000E-01 0.00000E+00
 -1        14 1.00000E+00 7.50000E-01 0.00000E+00
 -1        15 7.50000E-01 1.00000E+00 0.00000E+00
 -1        16 5.00000E-01 1.00000E+00 0.00000E+00
 -1        17 2.50000E-01 1.00000E+00 0.00000E+00
 -1        18 0.00000E+00 7.50000E-01 0.00000E+00
 -1        19 0.00000E+00 5.00000E-01 0.00000E+00
 -1        20 0.00000E+00 2.50000E-01 0.00000E+00
 -1        33 1.00000E+00 0.00000E+00 5.00000E-01
 -1        34 1.00000E+00 0.00000E+00 1.00000E+00
 -1        35 1.00000E+00 0.00000E+00 1.50000E+00
 -1        36 1.00000E+00 0.00000E+00 2.00000E+00
 -1        37 1.00000E+00 0.00000E+00 2.50000E+00
 -1        38 1.00000E+00 0.00000E+00 3.00000E+00
 -1        39 1.00000E+00 0.00000E+00 3.50000E+00
 -1        40 1.00000E+00 0.00000E+00 4.00000E+00
 -1        41 1.00000E+00 0.00000E+00 4.50000E+00
 -1        42 1.00000E+00 0.00000E+00 5.00000E+00
 -1        43 1.00000E+00 0.00000E+00 5.50000E+00
 -1        44 1.00000E+00 0.00000E+00 6.00000E+00
 -1        51 0.00000E+00 0.00000E+00 6.00000E+00
 -1        52 0.00000E+00 0.00000E+00 5.50000E+00
 -1        53 0.00000E+00 0.00000E+00 5.00000E+00
 -1        54 0.00000E+00 0.00000E+00 4.50000E+00
 -1        55 0.00000E+00 0.00000E+00 4.00000E+00
 -1        56 0.00000E+00 0.00000E+00 3.50000E+00
 -1        57 0.00000E+00 0.00000E+00 3.00000E+00
 -1        58 0.00000E+00 0.00000E+00 2.50000E+00
 -1        59 0.00000E+00 0.00000E+00 2.00000E+00
 -1        60 0.00000E+00 0.00000E+00 1.50000E+00
 -1        61 0.00000E+00 0.00000E+00 1.00000E+00
 -1        62 0.00000E+00 0.00000E+00 5.00000E-01
 -1        63 1.00000E+00 1.00000E+00 5.00000E-01
 -1        64 1.00000E+00 1.00000E+00 1.00000E+00
 -1        65 1.00000E+00 1.00000E+00 1.50000E+00
 -1        66 1.00000E+00 1.00000E+00 2.00000E+00
 -1        67 1.00000E+00 1.00000E+00 2.50000E+00
 -1        68 1.00000E+00 1.00000E+00 3.00000E+00
 -1        69 1.00000E+00 1.00000E+00 3.50000E+00
 -1        70 1.00000E+00 1.00000E+00 4.00000E+00
 -1        71 1.00000E+00 1.00000E+00 4.50000E+00
 -1        72 1.00000E+00 1.00000E+00 5.00000E+00
 -1        73 1.00000E+00 1.00000E+00 5.50000E+00
 -1        74 1.00000E+00 1.00000E+00 6.00000E+00
 -1        78 0.00000E+00 1.00000E+00 5.00000E-01
 -1        79 0.00000E+00 1.00000E+00 1.00000E+00
 -1        80 0.00000E+00 1.00000E+00 1.50000E+00
 -1        81 0.00000E+00 1.00000E+00 2.00000E+00
 -1        82 0.00000E+00 1.00000E+00 2.50000E+00
 -1        83 0.00000E+00 1.00000E+00 3.00000E+00
 -1        84 0.00000E+00 1.00000E+00 3.50000E+00
 -1        85 0.00000E+00 1.00000E+00 4.00000E+00
 -1        86 0.00000E+00 1.00000E+00 4.50000E+00
 -1        87 0.00000E+00 1.00000E+00 5.00000E+00
 -1        88 0.00000E+00 1.00000E+00 5.50000E+00
 -1        89 0.00000E+00 1.00000E+00 6.00000E+00
 -1        93 5.00000E-01 2.50000E-01 0.00000E+00
 -1        94 2.50000E-01 5.00000E-01 0.00000E+00
 -1        95 5.00000E-01 5.00000E-01 0.00000E+00
 -1        96 7.50000E-01 5.00000E-01 0.00000E+00
 -1        97 5.00000E-01 7.50000E-01 0.00000E+00
 -1       103 5.00000E-01 0.00000E+00 5.00000E-01
 -1       104 2.50000E-01 0.00000E+00 1.00000E+00
 -1       105 5.00000E-01 0.00000E+00 1.00000E+00
 -1       106 7.50000E-01 0.00000E+00 1.00000E+00
 -1       107 5.00000E-01 0.00000E+00 1.50000E+00
 -1       108 2.50000E-01 0.00000E+00 2.00000E+00
 -1       109 5.00000E-01 0.00000E+00 2.00000E+00
 -1       110 7.50000E-01 0.00000E+00 2.00000E+00
 -1       111 5.00000E-01 0.00000E+00 2.50000E+00
 -1       112 2.50000E-01 0.00000E+00 3.00000E+00
 -1       113 5.00000E-01 0.00000E+00 3.00000E+00
 -1       114 7.50000E-01 0.00000E+00 3.00000E+00
 -1       115 5.00000E-01 0.00000E+00 3.50000E+00
 -1       116 2.50000E-01 0.00000E+00 4.00000E+00
 -1       117 5.00000E-01 0.00000E+00 4.00000E+00
 -1       118 7.50000E-01 0.00000E+00 4.00000E+00
 -1       119 5.00000E-01 0.00000E+00 4.50000E+00
 -1       120 2.50000E-01 0.00000E+00 5.00000E+00
 -1       121 5.00000E-01 0.00000E+00 5.00000E+00
 -1       122 7.50000E-01 0.00000E+00 5.00000E+00
 -1       123 5.00000E-01 0.00000E+00 5.50000E+00
 -1       124 2.50000E-01 0.00000E+00 6.00000E+00
 -1       125 5.00000E-01 0.00000E+00 6.00000E+00
 -1       126 7.50000E-01 0.00000E+00 6.00000E+00
 -1       132 1.00000E+00 5.00000E-01 5.00000E-01
 -1       133 1.00000E+00 2.50000E-01 1.00000E+00
 -1       134 1.00000E+00 5.00000E-01 1.00000E+00
 -1       135 1.00000E+00 7.50000E-01 1.00000E+00
 -1       136 1.00000E+00 5.00000E-01 1.50000E+00
 -1       137 1.00000E+00 2.50000E-01 2.00000E+00
 -1       138 1.00000E+00 5.00000E-01 2.00000E+00
 -1       139 1.00000E+00 7.50000E-01 2.00000E+00
 -1       140 1.00000E+00 5.00000E-01 2.50000E+00
 -1       141 1.00000E+00 2.50000E-01 3.00000E+00
 -1       142 1.00000E+00 5.00000E-01 3.00000E+00
 -1       143 1.00000E+00 7.50000E-01 3.00000E+00
 -1       144 1.00000E+00 5.00000E-01 3.50000E+00
 -1       145 1.00000E+00 2.50000E-01 4.00000E+00
 -1       146 1.00000E+00 5.00000E-01 4.00000E+00
 -1       147 1.00000E+00 7.50000E-01 4.00000E+00
 -1       148 1.00000E+00 5.00000E-01 4.50000E+00
 -1       149 1.00000E+00 2.50000E-01 5.00000E+00
 -1       150 1.00000E+00 5.00000E-01 5.00000E+00
 -1       151 1.00000E+00 7.50000E-01 5.00000E+00
 -1       152 1.00000E+00 5.00000E-01 5.50000E+00
 -1       153 1.00000E+00 2.50000E-01 6.00000E+00
 -1       154 1.00000E+00 5.00000E-01 6.00000E+00
 -1       155 1.00000E+00 7.50000E-01 6.00000E+00
 -1       161 5.00000E-01 1.00000E+00 5.00000E-01
 -1       162 7.50000E-01 1.00000E+00 1.00000E+00
 -1       163 5.00000E-01 1.00000E+00 1.00000E+00
 -1       164 2.50000E-01 1.00000E+00 1.00000E+00
 -1       165 5.00000E-01 1.00000E+00 1.50000E+00
 -1       166 7.50000E-01 1.00000E+00 2.00000E+00
 -1       167 5.00000E-01 1.00000E+00 2.00000E+00
 -1       168 2.50000E-01 1.00000E+00 2.00000E+00
 -1       169 5.00000E-01 1.00000E+00 2.50000E+00
 -1       170 7.50000E-01 1.00000E+00 3.00000E+00
 -1       171 5.00000E-01 1.00000E+00 3.00000E+00
 -1       172 2.50000E-01 1.00000E+00 3.00000E+00
 -1       173 5.00000E-01 1.00000E+00 3.50000E+00
 -1       174 7.50000E-01 1.00000E+00 4.00000E+00
 -1       175 5.00000E-01 1.00000E+00 4.00000E+00
 -1       176 2.50000E-01 1.00000E+00 4.00000E+00
 -1       177 5.00000E-01 1.00000E+00 4.50000E+00
 -1       178 7.50000E-01 1.00000E+00 5.00000E+00
 -1       179 5.00000E-01 1.00000E+00 5.00000E+00
 -1       180 2.50000E-01 1.00000E+00 5.00000E+00
 -1       181 5.00000E-01 1.00000E+00 5.50000E+00
 -1       182 7.50000E-01 1.00000E+00 6.00000E+00
 -1       183 5.00000E-01 1.00000E+00 6.00000E+00
 -1       184 2.50000E-01 1.00000E+00 6.00000E+00
 -1       190 0.00000E+00 5.00000E-01 5.00000E-01
 -1       191 0.00000E+00 7.50000E-01 1.00000E+00
 -1       192 0.00000E+00 5.00000E-01 1.00000E+00
 -1       193 0.00000E+00 2.50000E-01 1.00000E+00
 -1       194 0.00000E+00 5.00000E-01 1.50000E+00
 -1       195 0.00000E+00 7.50000E-01 2.00000E+00
 -1       196 0.00000E+00 5.00000E-01 2.00000E+00
 -1       197 0.00000E+00 2.50000E-01 2.00000E+00
 -1       198 0.00000E+00 5.00000E-01 2.50000E+00
 -1       199 0.00000E+00 7.50000E-01 3.00000E+00
 -1       200 0.00000E+00 5.00000E-01 3.00000E+00
 -1       201 0.00000E+00 2.50000E-01 3.00000E+00
 -1       202 0.00000E+00 5.00000E-01 3.50000E+00
 -1       203 0.00000E+00 7.50000E-01 4.00000E+00
 -1       204 0.00000E+00 5.00000E-01 4.00000E+00
 -1       205 0.00000E+00 2.50000E-01 4.00000E+00
 -1       206 0.00000E+00 5.00000E-01 4.50000E+00
 -1       207 0.00000E+00 7.50000E-01 5.00000E+00
 -1       208 0.00000E+00 5.00000E-01 5.00000E+00
 -1       209 0.00000E+00 2.50000E-01 5.00000E+00
 -1       210 0.00000E+00 5.00000E-01 5.50000E+00
 -1       211 0.00000E+00 7.50000E-01 6.00000E+00
 -1       212 0.00000E+00 5.00000E-01 6.00000E+00
 -1       213 0.00000E+00 2.50000E-01 6.00000E+00
 -1       219 5.00000E-01 5.00000E-01 5.00000E-01
 -1       220 5.00000E-01 2.50000E-01 1.00000E+00
 -1       221 2.50000E-01 5.00000E-01 1.00000E+00
 -1       222 5.00000E-01 5.00000E-01 1.00000E+00
 -1       223 7.50000E-01 5.00000E-01 1.00000E+00
 -1       224 5.00000E-01 7.50000E-01 1.00000E+00
 -1       225 5.00000E-01 5.00000E-01 1.50000E+00
 -1       226 5.00000E-01 2.50000E-01 2.00000E+00
 -1       227 2.50000E-01 5.00000E-01 2.00000E+00
 -1       228 5.00000E-01 5.00000E-01 2.00000E+00
 -1       229 7.50000E-01 5.00000E-01 2.00000E+00
 -1       230 5.00000E-01 7.50000E-01 2.00000E+00
 -1       231 5.00000E-01 5.00000E-01 2.50000E+00
 -1       232 5.00000E-01 2.50000E-01 3.00000E+00
 -1       233 2.50000E-01 5.00000E-01 3.00000E+00
 -1       234 5.00000E-01 5.00000E-01 3.00000E+00
 -1       235 7.50000E-01 5.00000E-01 3.00000E+00
 -1       236 5.00000E-01 7.50000E-01 3.00000E+00
 -1       237 5.00000E-01 5.00000E-01 3.50000E+00
 -1       238 5.00000E-01 2.50000E-01 4.00000E+00
 -1       239 2.50000E-01 5.00000E-01 4.00000E+00
 -1       240 5.00000E-01 5.00000E-01 4.00000E+00
 -1       241 7.50000E-01 5.00000E-01 4.00000E+00
 -1       242 5.00000E-01 7.50000E-01 4.00000E+00
 -1       243 5.00000E-01 5.00000E-01 4.50000E+00
 -1       244 5.00000E-01 2.50000E-01 5.00000E+00
 -1       245 2.50000E-01 5.00000E-01 5.00000E+00
 -1       246 5.00000E-01 5.00000E-01 5.00000E+00
 -1       247 7.50000E-01 5.00000E-01 5.00000E+00
 -1       248 5.00000E-01 7.50000E-01 5.00000E+00
 -1       249 5.00000E-01 5.00000E-01 5.50000E+00
 -1       250 5.00000E-01 2.50000E-01 6.00000E+00
 -1       251 2.50000E-01 5.00000E-01 6.00000E+00
 -1       252 5.00000E-01 5.00000E-01 6.00000E+00
 -1       253 7.50000E-01 5.00000E-01 6.00000E+00
 -1       254 5.00000E-01 7.50000E-01 6.00000E+00
 -3
    3C                            24                                     1
 -1         1    4    0    1
 -2         1        10        95        19        61       105       222       192         9        93
 -2        94        20        62       103       219       190       104       220       221       193
 -1         2    4    0    1
 -2        10         2        13        95       105        34       134       222        11        12
 -2        96        93       103        33       132       219       106       133       223       220
 -1         3    4    0    1
 -2        19        95        16         4       192       222       163        79        94        97
 -2        17        18       190       219       161        78       221       224       164       191
 -1         4    4    0    1
 -2        95        13         3        16       222       134        64       163        96        14
 -2        15        97       219       132        63       161       223       135       162       224
 -1         5    4    0    1
 -2        61       105       222       192        59       109       228       196       104       220
 -2       221       193        60       107       225       194       108       226       227       197
 -1         6    4    0    1
 -2       105        34       134       222       109        36       138       228       106       133
 -2       223       220       107        35       136       225       110       137       229       226
 -1         7    4    0    1
 -2       192       222       163        79       196       228       167        81       221       224
 -2       164       191       194       225       165        80       227       230       168       195
 -1         8    4    0    1
 -2       222       134        64       163       228       138        66       167       223       135
 -2       162       224       225       136        65       165       229       139       166       230
 -1         9    4    0    1
 -2        59       109       228       196        57       113       234       200       108       226
 -2       227       197        58       111       231       198       112       232       233       201
 -1        10    4    0    1
 -2       109        36       138       228       113        38       142       234       110       137
 -2       229       226       111        37       140       231       114       141       235       232
 -1        11    4    0    1
 -2       196       228       167        81       200       234       171        83       227       230
 -2       168       195       198       231       169        82       233       236       172       199
 -1        12    4    0    1
 -2       228       138        66       167       234       142        68       171       229       139
 -2       166       230       231       140        67       169       235       143       170       236
 -1        13    4    0    1
 -2        57       113       234       200        55       117       240       204       112       232
 -2       233       201        56       115       237       202       116       238       239       205
 -1        14    4    0    1
 -2       113        38       142       234       117        40       146       240       114       141
 -2       235       232       115        39       144       237       118       145       241       238
 -1        15    4    0    1
 -2       200       234       171        83       204       240       175        85       233       236
 -2       172       199       202       237       173        84       239       242       176       203
 -1        16    4    0    1
 -2       234       142        68       171       240       146        70       175       235       143
 -2       170       236       237       144        69       173       241       147       174       242
 -1        17    4    0    1
 -2        55       117       240       204        53       121       246       208       116       238
 -2       239       205        54       119       243       206       120       244       245       209
 -1        18    4    0    1
 -2       117        40       146       240       121        42       150       246       118       145
 -2       241       238       119        41       148       243       122       149       247       244
 -1        19    4    0    1
 -2       204       240       175        85       208       246       179        87       239       242
 -2       176       203       206       243       177        86       245       248       180       207
 -1        20    4    0    1
 -2       240       146        70       175       246       150        72       179       241       147
 -2       174       242       243       148        71       177       247       151       178       248
 -1        21    4    0    1
 -2        53       121       246       208        51       125       252       212       120       244
 -2       245       209        52       123       249       210       124       250       251       213
 -1        22    4    0    1
 -2       121        42       150       246       125        44       154       252       122       149
 -2       247       244       123        43       152       249       126       153       253       250
 -1        23    4    0    1
 -2       208       246       179        87       212       252       183        89       245       248
 -2       180       207       210       249       181        88       251       254       184       211
 -1        24    4    0    1
 -2       246       150        72       179       252       154        74       183       247       151
 -2       178       248       249       152        73       181       253       155       182       254
 -3
    1PSTEP                         1           1           1          
  100CL  101 5.00000E-03         201                     1    1           1
 -4  DISP        4    1
 -5  D1          1    2    1    0
 -5  D2          1    2    2    0
 -5  D3          1    2    3    0
 -5  ALL         1    2    0    0    1ALL
 -1         1 0.00000E+00 0.00000E+00 0.00000E+00
 -1         2 0.00000E+00 0.00000E+00 0.00000E+00
 -1         3 0.00000E+00 0.00000E+00 0.00000E+00
 -1         4 0.00000E+00 0.00000E+00 0.00000E+00
 -1         9 0.00000E+00 0.00000E+00 0.00000E+00
 -1        10 0.00000E+00 0.00000E+00 0.00000E+00
 -1        11 0.00000E+00 0.00000E+00 0.00000E+00
 -1        12 0.00000E+00 0.00000E+00 0.00000E+00
 -1        13 0.00000E+00 0.00000E+00 0.00000E+00
 -1        14 0.00000E+00 0.00000E+00 0.00000E+00
 -1        15 0.00000E+00 0.00000E+00 0.00000E+00
 -1        16 0.00000E+00 0.00000E+00 0.00000E+00
 -1        17 0.00000E+00 0.00000E+00 0.00000E+00
 -1        18 0.00000E+00 0.00000E+00 0.00000E+00
 -1        19 0.00000E+00 0.00000E+00 0.00000E+00
 -1        20 0.00000E+00 0.00000E+00 0.00000E+00
 -1        33 6.37629E-05-1.55493E-04-2.04303E-04
 -1        34 3.13168E-05-4.81503E-04-3.74041E-04
 -1        35 2.57215E-05-9.69877E-04-4.83448E-04
 -1        36 8.12235E-06-1.52714E-03-5.40423E-04
 -1        37-5.17409E-06-2.10984E-03-5.47218E-04
 -1        38-2.08696E-05-2.69256E-03-5.18784E-04
 -1        39-4.26605E-05-3.19239E-03-3.84275E-04
 -1        40-4.36376E-05-3.54118E-03-2.09157E-04
 -1        41-4.39866E-05-3.57672E-03-6.32600E-05
 -1        42-5.83286E-05-3.73767E-03-1.49907E-04
 -1        43 6.08023E-05-3.46749E-03 8.45525E-05
 -1        44-6.99982E-05-3.46682E-03 4.47755E-04
 -1        51 6.99993E-05-3.46683E-03 4.47757E-04
 -1        52-6.07900E-05-3.46749E-03 8.45581E-05
 -1        53 5.83236E-05-3.73767E-03-1.49911E-04
 -1        54 4.39921E-05-3.57672E-03-6.32587E-05
 -1        55 4.36380E-05-3.54119E-03-2.09158E-04
 -1        56 4.26648E-05-3.19239E-03-3.84274E-04
 -1        57 2.08705E-05-2.69256E-03-5.18784E-04
 -1        58 5.17632E-06-2.10984E-03-5.47217E-04
 -1        59-8.12168E-06-1.52714E-03-5.40423E-04
 -1        60-2.57206E-05-9.69876E-04-4.83447E-04
 -1        61-3.13167E-05-4.81503E-04-3.74040E-04
 -1        62-6.37628E-05-1.55493E-04-2.04302E-04
 -1        63-6.25958E-05-1.53767E-04 2.00878E-04
 -1        64-3.11572E-05-4.80955E-04 3.66697E-04
 -1        65-2.33568E-05-9.69415E-04 4.73149E-04
 -1        66-7.84652E-06-1.53358E-03 5.26698E-04
 -1        67 4.87977E-06-2.10009E-03 5.30318E-04
 -1        68 1.42352E-05-2.69317E-03 4.93744E-04
 -1        69 5.92547E-05-3.20325E-03 3.57694E-04
 -1        70 6.76671E-05-3.63207E-03 1.83880E-04
 -1        71-8.40291E-06-3.45367E-03 3.25291E-05
 -1        72-1.10620E-04-3.47498E-03 8.15905E-05
 -1        73 2.13887E-04-3.88822E-03-1.66493E-04
 -1        74 3.52531E-04-4.41710E-03-4.93942E-04
 -1        78 6.25961E-05-1.53767E-04 2.00878E-04
 -1        79 3.11580E-05-4.80955E-04 3.66698E-04
 -1        80 2.33582E-05-9.69415E-04 4.73150E-04
 -1        81 7.84906E-06-1.53358E-03 5.26699E-04
 -1        82-4.87669E-06-2.10009E-03 5.30319E-04
 -1        83-1.42307E-05-2.69317E-03 4.93745E-04
 -1        84-5.92500E-05-3.20325E-03 3.57694E-04
 -1        85-6.76599E-05-3.63207E-03 1.83883E-04
 -1        86 8.40803E-06-3.45367E-03 3.25276E-05
 -1        87 1.10628E-04-3.47498E-03 8.15849E-05
 -1        88-2.13880E-04-3.88821E-03-1.66494E-04
 -1        89-3.52515E-04-4.41709E-03-4.93941E-04
 -1        93 0.00000E+00 0.00000E+00 0.00000E+00
 -1        94 0.00000E+00 0.00000E+00 0.00000E+00
 -1        95 0.00000E+00 0.00000E+00 0.00000E+00
 -1        96 0.00000E+00 0.00000E+00 0.00000E+00
 -1        97 0.00000E+00 0.00000E+00 0.00000E+00
 -1       103-1.51410E-11-1.81767E-04-2.00522E-04
 -1       104-1.56043E-05-5.00873E-04-3.79928E-04
 -1       105 2.32193E-10-5.03359E-04-3.82564E-04
 -1       106 1.56046E-05-5.00873E-04-3.79928E-04
 -1       107 2.77026E-10-9.80015E-04-4.86169E-04
 -1       108-3.33981E-06-1.52920E-03-5.44147E-04
 -1       109 8.95628E-10-1.53969E-03-5.43035E-04
 -1       110 3.34103E-06-1.52920E-03-5.44147E-04
 -1       111 7.28539E-10-2.10121E-03-5.51068E-04
 -1       112 7.60006E-06-2.71641E-03-5.20748E-04
 -1       113 1.90275E-09-2.70947E-03-5.22333E-04
 -1       114-7.59766E-06-2.71641E-03-5.20749E-04
 -1       115 1.11519E-09-3.15443E-03-3.92722E-04
 -1       116 3.24384E-05-3.51679E-03-2.03754E-04
 -1       117 3.44633E-09-3.63813E-03-1.82582E-04
 -1       118-3.24349E-05-3.51678E-03-2.03754E-04
 -1       119 5.97591E-10-3.55156E-03-6.59872E-05
 -1       120-5.08103E-06-3.90846E-03-1.12756E-04
 -1       121 6.34238E-09-3.76315E-03-1.17032E-04
 -1       122 5.08535E-06-3.90846E-03-1.12754E-04
 -1       123-1.01812E-09-3.47803E-03-2.55189E-05
 -1       124 1.39971E-04-2.96365E-03 4.28489E-04
 -1       125 1.85271E-08-3.57992E-03 4.47642E-04
 -1       126-1.39954E-04-2.96365E-03 4.28488E-04
 -1       132 7.11852E-07-1.18578E-04-1.59250E-06
 -1       133 1.61135E-05-4.69207E-04-1.77836E-04
 -1       134 8.75561E-07-4.73858E-04-2.86587E-06
 -1       135-1.53679E-05-4.69302E-04 1.71031E-04
 -1       136-1.48593E-07-9.52436E-04-5.56701E-06
 -1       137 4.84198E-06-1.52504E-03-2.68342E-04
 -1       138 5.56822E-07-1.51710E-03-7.34768E-06
 -1       139-3.73538E-06-1.52678E-03 2.54956E-04
 -1       140 1.65176E-06-2.12422E-03-9.13999E-06
 -1       141-1.05709E-05-2.67779E-03-2.44094E-04
 -1       142 5.29865E-06-2.68386E-03-5.05966E-06
 -1       143 1.15694E-05-2.68372E-03 2.23957E-04
 -1       144-8.66611E-06-3.21685E-03-1.26721E-05
 -1       145-1.97255E-05-3.55842E-03-1.31915E-04
 -1       146-1.23428E-05-3.46065E-03-2.48689E-05
 -1       147 1.69302E-05-3.58359E-03 1.00762E-04
 -1       148 2.64289E-05-3.67909E-03-2.36856E-05
 -1       149-3.53032E-05-3.41944E-03-4.74337E-05
 -1       150 8.15244E-05-3.44308E-03-1.80414E-06
 -1       151 3.34850E-05-3.34694E-03 4.96307E-07
 -1       152-1.23582E-04-3.71743E-03 1.23688E-05
 -1       153 7.88059E-05-3.61791E-03 1.90514E-04
 -1       154-1.10380E-04-2.48233E-03-2.07094E-05
 -1       155-8.49808E-05-3.89237E-03-2.37369E-04
 -1       161 1.30718E-10-1.80575E-04 1.96802E-04
 -1       162-1.53661E-05-5.00225E-04 3.73207E-04
 -1       163 3.75673E-10-5.00926E-04 3.75363E-04
 -1       164 1.53669E-05-5.00225E-04 3.73207E-04
 -1       165 7.78243E-10-9.80040E-04 4.76146E-04
 -1       166-3.89943E-06-1.52659E-03 5.30077E-04
 -1       167 1.08554E-09-1.53559E-03 5.32293E-04
 -1       168 3.90179E-06-1.52659E-03 5.30078E-04
 -1       169 1.66530E-09-2.10220E-03 5.30380E-04
 -1       170 7.30871E-06-2.71624E-03 5.00783E-04
 -1       171 1.87188E-09-2.67839E-03 4.96230E-04
 -1       172-7.30454E-06-2.71624E-03 5.00783E-04
 -1       173 2.70314E-09-3.17455E-03 3.68401E-04
 -1       174 3.24737E-05-3.45865E-03 1.70725E-04
 -1       175 2.32691E-09-3.55671E-03 1.72285E-04
 -1       176-3.24678E-05-3.45865E-03 1.70726E-04
 -1       177 3.37064E-09-3.51029E-03 2.14405E-05
 -1       178-4.85342E-05-4.00496E-03 7.16143E-05
 -1       179 1.91886E-09-3.57995E-03 4.65999E-05
 -1       180 4.85409E-05-4.00496E-03 7.16136E-05
 -1       181 6.27860E-09-3.67113E-03-6.25999E-05
 -1       182 1.35162E-04-2.56162E-03-4.69855E-04
 -1       183 3.32269E-10-4.33630E-03-4.76002E-04
 -1       184-1.35155E-04-2.56162E-03-4.69865E-04
 -1       190-7.11659E-07-1.18578E-04-1.59228E-06
 -1       191 1.53687E-05-4.69302E-04 1.71031E-04
 -1       192-8.74916E-07-4.73858E-04-2.86541E-06
 -1       193-1.61131E-05-4.69207E-04-1.77835E-04
 -1       194 1.49680E-07-9.52435E-04-5.56641E-06
 -1       195 3.73765E-06-1.52678E-03 2.54957E-04
 -1       196-5.54816E-07-1.51710E-03-7.34695E-06
 -1       197-4.84066E-06-1.52504E-03-2.68341E-04
 -1       198-1.64935E-06-2.12422E-03-9.13935E-06
 -1       199-1.15651E-05-2.68372E-03 2.23958E-04
 -1       200-5.29487E-06-2.68386E-03-5.05893E-06
 -1       201 1.05733E-05-2.67779E-03-2.44093E-04
 -1       202 8.66981E-06-3.21685E-03-1.26713E-05
 -1       203-1.69241E-05-3.58358E-03 1.00763E-04
 -1       204 1.23485E-05-3.46065E-03-2.48681E-05
 -1       205 1.97283E-05-3.55842E-03-1.31915E-04
 -1       206-2.64248E-05-3.67909E-03-2.36860E-05
 -1       207-3.34756E-05-3.34694E-03 4.98401E-07
 -1       208-8.15169E-05-3.44307E-03-1.80330E-06
 -1       209 3.53052E-05-3.41944E-03-4.74337E-05
 -1       210 1.23586E-04-3.71744E-03 1.23705E-05
 -1       211 8.49864E-05-3.89235E-03-2.37381E-04
 -1       212 1.10389E-04-2.48232E-03-2.07010E-05
 -1       213-7.88042E-05-3.61792E-03 1.90518E-04
 -1       219 8.88724E-11-1.44311E-04-1.42661E-06
 -1       220 2.45163E-10-4.88997E-04-1.83471E-04
 -1       221-4.16008E-07-4.90518E-04-3.62669E-06
 -1       222 2.53624E-10-4.91953E-04-3.79265E-06
 -1       223 4.16574E-07-4.90518E-04-3.62691E-06
 -1       224 3.16219E-10-4.87648E-04 1.76531E-04
 -1       225 5.77980E-10-9.64543E-04-5.11151E-06
 -1       226 8.59743E-10-1.53261E-03-2.72613E-04
 -1       227-3.45811E-07-1.51846E-03-6.84549E-06
 -1       228 8.03771E-10-1.52045E-03-8.41581E-06
 -1       229 3.47619E-07-1.51846E-03-6.84586E-06
 -1       230 9.54496E-10-1.53088E-03 2.57437E-04
 -1       231 1.36429E-09-2.12258E-03-7.46772E-06
 -1       232 1.65172E-09-2.68557E-03-2.49041E-04
 -1       233-2.26718E-06-2.68132E-03-1.26835E-05
 -1       234 1.47368E-09-2.67869E-03-1.39721E-05
 -1       235 2.27053E-06-2.68132E-03-1.26838E-05
 -1       236 1.64710E-09-2.66878E-03 2.26891E-04
 -1       237 2.06783E-09-3.18907E-03-9.30319E-06
 -1       238 2.66914E-09-3.60834E-03-1.23787E-04
 -1       239 6.15339E-06-3.44970E-03-1.43074E-05
 -1       240 1.63770E-09-3.47460E-03-1.98868E-05
 -1       241-6.14886E-06-3.44970E-03-1.43080E-05
 -1       242 2.03833E-09-3.56948E-03 8.80773E-05
 -1       243 3.21391E-09-3.65126E-03-2.12921E-05
 -1       244 3.42364E-09-3.51601E-03-1.99983E-05
 -1       245-3.48701E-05-3.60641E-03-2.62244E-05
 -1       246 1.53016E-09-3.64910E-03-1.97602E-05
 -1       247 3.48752E-05-3.60641E-03-2.62236E-05
 -1       248 1.63730E-09-3.43839E-03-1.03509E-05
 -1       249 2.45019E-09-3.51859E-03-1.36366E-05
 -1       250 8.22203E-09-4.09003E-03 1.74161E-04
 -1       251 3.78235E-05-2.56874E-03-1.04141E-05
 -1       252-5.80439E-09-3.12887E-03-1.59454E-05
 -1       253-3.78246E-05-2.56876E-03-1.04237E-05
 -1       254-2.71811E-09-4.39521E-03-2.54014E-04
 -3
    1PSTEP                         2           2           1          
  100CL  102 1.00000E-02         201                     1    2           1
 -4  DISP        4    1
 -5  D1          1    2    1    0
 -5  D2          1    2    2    0
 -5  D3          1    2    3    0
 -5  ALL         1    2    0    0    1ALL
 -1         1 0.00000E+00 0.00000E+00 0.00000E+00
 -1         2 0.00000E+00 0.00000E+00 0.00000E+00
 -1         3 0.00000E+00 0.00000E+00 0.00000E+00
 -1         4 0.00000E+00 0.00000E+00 0.00000E+00
 -1         9 0.00000E+00 0.00000E+00 0.00000E+00
 -1        10 0.00000E+00 0.00000E+00 0.00000E+00
 -1        11 0.00000E+00 0.00000E+00 0.00000E+00
 -1        12 0.00000E+00 0.00000E+00 0.00000E+00
 -1        13 0.00000E+00 0.00000E+00 0.00000E+00
 -1        14 0.00000E+00 0.00000E+00 0.00000E+00
 -1        15 0.00000E+00 0.00000E+00 0.00000E+00
 -1        16 0.00000E+00 0.00000E+00 0.00000E+00
 -1        17 0.00000E+00 0.00000E+00 0.00000E+00
 -1        18 0.00000E+00 0.00000E+00 0.00000E+00
 -1        19 0.00000E+00 0.00000E+00 0.00000E+00
 -1        20 0.00000E+00 0.00000E+00 0.00000E+00
 -1        33-3.19976E-05 7.91727E-05 1.03008E-04
 -1        34-1.54883E-05 2.44817E-04 1.87742E-04
 -1        35-1.27474E-05 4.92583E-04 2.42732E-04
 -1        36-4.50603E-06 7.74362E-04 2.70066E-04
 -1        37 4.29000E-06 1.07185E-03 2.71855E-04
 -1        38 1.34663E-05 1.36760E-03 2.50318E-04
 -1        39 2.07974E-05 1.60898E-03 1.85227E-04
 -1        40 1.41306E-05 1.78361E-03 9.24565E-05
 -1        41 3.48395E-05 1.81713E-03 2.07355E-05
 -1        42 4.42007E-05 1.87104E-03 1.11770E-05
 -1        43-3.81718E-05 1.69860E-03-7.83434E-05
 -1        44-1.50939E-04 1.60901E-03-2.33928E-04
 -1        51 1.50961E-04 1.60899E-03-2.33931E-04
 -1        52 3.81986E-05 1.69859E-03-7.83449E-05
 -1        53-4.41859E-05 1.87104E-03 1.11736E-05
 -1        54-3.48202E-05 1.81713E-03 2.07366E-05
 -1        55-1.41146E-05 1.78361E-03 9.24581E-05
 -1        56-2.07813E-05 1.60898E-03 1.85229E-04
 -1        57-1.34544E-05 1.36760E-03 2.50320E-04
 -1        58-4.27980E-06 1.07184E-03 2.71858E-04
 -1        59 4.51297E-06 7.74361E-04 2.70069E-04
 -1        60 1.27522E-05 4.92582E-04 2.42734E-04
 -1        61 1.54906E-05 2.44817E-04 1.87743E-04
 -1        62 3.19985E-05 7.91727E-05 1.03009E-04
 -1        63 3.19923E-05 7.91641E-05-1.02992E-04
 -1        64 1.54891E-05 2.44814E-04-1.87706E-04
 -1        65 1.27396E-05 4.92581E-04-2.42682E-04
 -1        66 4.51165E-06 7.74395E-04-2.70000E-04
 -1        67-4.28128E-06 1.07180E-03-2.71773E-04
 -1        68-1.34249E-05 1.36760E-03-2.50192E-04
 -1        69-2.08629E-05 1.60904E-03-1.85095E-04
 -1        70-1.42193E-05 1.78408E-03-9.23355E-05
 -1        71-3.45827E-05 1.81650E-03-2.05876E-05
 -1        72-4.33754E-05 1.86968E-03-1.08115E-05
 -1        73 3.68830E-05 1.70074E-03 7.87827E-05
 -1        74 1.49801E-04 1.61398E-03 2.34166E-04
 -1        78-3.19919E-05 7.91636E-05-1.02991E-04