    1C
    1UUSER                                                              
    1UDATE              11.july.2018                                    
    1UTIME              15:03:05                                        
    1UHOST                                                              
    1UPGM               CalculiX                                        
    1UVERSION           Version 2.13                             
    1UCOMPILETIME       jue jun 14 00:40:39 CEST 2018                    
    1UDIR                                                               
    1UDBN                                                               
    1UMAT    1EL                                                        
    2C                           201                                     1
 -1         1 0.00000E+00 0.00000E+00 0.00000E+00
 -1         2 1.00000E+00 0.00000E+00 0.00000E+00
 -1         3 1.00000E+00 1.00000E+00 0.00000E+00
 -1         4 0.00000E+00 1.00000E+00 0.00000E+00
 -1         9 2.50000E-01 0.00000E+00 0.00000E+00
 -1        10 5.00000E-01 0.00000E+00 0.00000E+00
 -1        11 7.50000E-01 0.00000E+00 0.00000E+00
 -1        12 1.00000E+00 2.50000E-01 0.00000E+00
 -1        13 1.00000E+00 5.00000E-01 0.00000E+00
 -1        14 1.00000E+00 7.50000E-01 0.00000E+00
 -1        15 7.50000E-01 1.00000E+00 0.00000E+00
 -1        16 5.00000E-01 1.00000E+00 0.00000E+00
 -1        17 2.50000E-01 1.00000E+00 0.00000E+00
 -1        18 0.00000E+00 7.50000E-01 0.00000E+00
 -1        19 0.00000E+00 5.00000E-01 0.00000E+00
 -1        20 0.00000E+00 2.50000E-01 0.00000E+00
 -1        33 1.00000E+00 0.00000E+00 5.00000E-01
 -1        34 1.00000E+00 0.00000E+00 1.00000E+00
 -1        35 1.00000E+00 0.00000E+00 1.50000E+00
 -1        36 1.00000E+00 0.00000E+00 2.00000E+00
 -1        37 1.00000E+00 0.00000E+00 2.50000E+00
 -1        38 1.00000E+00 0.00000E+00 3.00000E+00
 -1        39 1.00000E+00 0.00000E+00 3.50000E+00
 -1        40 1.00000E+00 0.00000E+00 4.00000E+00
 -1        41 1.00000E+00 0.00000E+00 4.50000E+00
 -1        42 1.00000E+00 0.00000E+00 5.00000E+00
 -1        43 1.00000E+00 0.00000E+00 5.50000E+00
 -1        44 1.00000E+00 0.00000E+00 6.00000E+00
 -1        51 0.00000E+00 0.00000E+00 6.00000E+00
 -1        52 0.00000E+00 0.00000E+00 5.50000E+00
 -1        53 0.00000E+00 0.00000E+00 5.00000E+00
 -1        54 0.00000E+00 0.00000E+00 4.50000E+00
 -1        55 0.00000E+00 0.00000E+00 4.00000E+00
 -1        56 0.00000E+00 0.00000E+00 3.50000E+00
 -1        57 0.00000E+00 0.00000E+00 3.00000E+00
 -1        58 0.00000E+00 0.00000E+00 2.50000E+00
 -1        59 0.00000E+00 0.00000E+00 2.00000E+00
 -1        60 0.00000E+00 0.00000E+00 1.50000E+00
 -1        61 0.00000E+00 0.00000E+00 1.00000E+00
 -1        62 0.00000E+00 0.00000E+00 5.00000E-01
 -1        63 1.00000E+00 1.00000E+00 5.00000E-01
 -1        64 1.00000E+00 1.00000E+00 1.00000E+00
 -1        65 1.00000E+00 1.00000E+00 1.50000E+00
 -1        66 1.00000E+00 1.00000E+00 2.00000E+00
 -1        67 1.00000E+00 1.00000E+00 2.50000E+00
 -1        68 1.00000E+00 1.00000E+00 3.00000E+00
 -1        69 1.00000E+00 1.00000E+00 3.50000E+00
 -1        70 1.00000E+00 1.00000E+00 4.00000E+00
 -1        71 1.00000E+00 1.00000E+00 4.50000E+00
 -1        72 1.00000E+00 1.00000E+00 5.00000E+00
 -1        73 1.00000E+00 1.00000E+00 5.50000E+00
 -1        74 1.00000E+00 1.00000E+00 6.00000E+00
 -1        78 0.00000E+00 1.00000E+00 5.00000E-01
 -1        79 0.00000E+00 1.00000E+00 1.00000E+00
 -1        80 0.00000E+00 1.00000E+00 1.50000E+00
 -1        81 0.00000E+00 1.00000E+00 2.00000E+00
 -1        82 0.00000E+00 1.00000E+00 2.50000E+00
 -1        83 0.00000E+00 1.00000E+00 3.00000E+00
 -1        84 0.00000E+00 1.00000E+00 3.50000E+00
 -1        85 0.00000E+00 1.00000E+00 4.00000E+00
 -1        86 0.00000E+00 1.00000E+00 4.50000E+00
 -1        87 0.00000E+00 1.00000E+00 5.00000E+00
 -1        88 0.00000E+00 1.00000E+00 5.50000E+00
 -1        89 0.00000E+00 1.00000E+00 6.00000E+00
 -1        93 5.00000E-01 2.50000E-01 0.00000E+00
 -1        94 2.50000E-01 5.00000E-01 0.00000E+00
 -1        95 5.00000E-01 5.00000E-01 0.00000E+00
 -1        96 7.50000E-01 5.00000E-01 0.00000E+00
 -1        97 5.00000E-01 7.50000E-01 0.00000E+00
 -1       103 5.00000E-01 0.00000E+00 5.00000E-01
 -1       104 2.50000E-01 0.00000E+00 1.00000E+00
 -1       105 5.00000E-01 0.00000E+00 1.00000E+00
 -1       106 7.50000E-01 0.00000E+00 1.00000E+00
 -1       107 5.00000E-01 0.00000E+00 1.50000E+00
 -1       108 2.50000E-01 0.00000E+00 2.00000E+00
 -1       109 5.00000E-01 0.00000E+00 2.00000E+00
 -1       110 7.50000E-01 0.00000E+00 2.00000E+00
 -1       111 5.00000E-01 0.00000E+00 2.50000E+00
 -1       112 2.50000E-01 0.00000E+00 3.00000E+00
 -1       113 5.00000E-01 0.00000E+00 3.00000E+00
 -1       114 7.50000E-01 0.00000E+00 3.00000E+00
 -1       115 5.00000E-01 0.00000E+00 3.50000E+00
 -1       116 2.50000E-01 0.00000E+00 4.00000E+00
 -1       117 5.00000E-01 0.00000E+00 4.00000E+00
 -1       118 7.50000E-01 0.00000E+00 4.00000E+00
 -1       119 5.00000E-01 0.00000E+00 4.50000E+00
 -1       120 2.50000E-01 0.00000E+00 5.00000E+00
 -1       121 5.00000E-01 0.00000E+00 5.00000E+00
 -1       122 7.50000E-01 0.00000E+00 5.00000E+00
 -1       123 5.00000E-01 0.00000E+00 5.50000E+00
 -1       124 2.50000E-01 0.00000E+00 6.00000E+00
 -1       125 5.00000E-01 0.00000E+00 6.00000E+00
 -1       126 7.50000E-01 0.00000E+00 6.00000E+00
 -1       132 1.00000E+00 5.00000E-01 5.00000E-01
 -1       133 1.00000E+00 2.50000E-01 1.00000E+00
 -1       134 1.00000E+00 5.00000E-01 1.00000E+00
 -1       135 1.00000E+00 7.50000E-01 1.00000E+00
 -1       136 1.00000E+00 5.00000E-01 1.50000E+00
 -1       137 1.00000E+00 2.50000E-01 2.00000E+00
 -1       138 1.00000E+00 5.00000E-01 2.00000E+00
 -1       139 1.00000E+00 7.50000E-01 2.00000E+00
 -1       140 1.00000E+00 5.00000E-01 2.50000E+00
 -1       141 1.00000E+00 2.50000E-01 3.00000E+00
 -1       142 1.00000E+00 5.00000E-01 3.00000E+00
 -1       143 1.00000E+00 7.50000E-01 3.00000E+00
 -1       144 1.00000E+00 5.00000E-01 3.50000E+00
 -1       145 1.00000E+00 2.50000E-01 4.00000E+00
 -1       146 1.00000E+00 5.00000E-01 4.00000E+00
 -1       147 1.00000E+00 7.50000E-01 4.00000E+00
 -1       148 1.00000E+00 5.00000E-01 4.50000E+00
 -1       149 1.00000E+00 2.50000E-01 5.00000E+00
 -1       150 1.00000E+00 5.00000E-01 5.00000E+00
 -1       151 1.00000E+00 7.50000E-01 5.00000E+00
 -1       152 1.00000E+00 5.00000E-01 5.50000E+00
 -1       153 1.00000E+00 2.50000E-01 6.00000E+00
 -1       154 1.00000E+00 5.00000E-01 6.00000E+00
 -1       155 1.00000E+00 7.50000E-01 6.00000E+00
 -1       161 5.00000E-01 1.00000E+00 5.00000E-01
 -1       162 7.50000E-01 1.00000E+00 1.00000E+00
 -1       163 5.00000E-01 1.00000E+00 1.00000E+00
 -1       164 2.50000E-01 1.00000E+00 1.00000E+00
 -1       165 5.00000E-01 1.00000E+00 1.50000E+00
 -1       166 7.50000E-01 1.00000E+00 2.00000E+00
 -1       167 5.00000E-01 1.00000E+00 2.00000E+00
 -1       168 2.50000E-01 1.00000E+00 2.00000E+00
 -1       169 5.00000E-01 1.00000E+00 2.50000E+00
 -1       170 7.50000E-01 1.00000E+00 3.00000E+00
 -1       171 5.00000E-01 1.00000E+00 3.00000E+00
 -1       172 2.50000E-01 1.00000E+00 3.00000E+00
 -1       173 5.00000E-01 1.00000E+00 3.50000E+00
 -1       174 7.50000E-01 1.00000E+00 4.00000E+00
 -1       175 5.00000E-01 1.00000E+00 4.00000E+00
 -1       176 2.50000E-01 1.00000E+00 4.00000E+00
 -1       177 5.00000E-01 1.00000E+00 4.50000E+00
 -1       178 7.50000E-01 1.00000E+00 5.00000E+00
 -1       179 5.00000E-01 1.00000E+00 5.00000E+00
 -1       180 2.50000E-01 1.00000E+00 5.00000E+00
 -1       181 5.00000E-01 1.00000E+00 5.50000E+00
 -1       182 7.50000E-01 1.00000E+00 6.00000E+00
 -1       183 5.00000E-01 1.00000E+00 6.00000E+00
 -1       184 2.50000E-01 1.00000E+00 6.00000E+00
 -1       190 0.00000E+00 5.00000E-01 5.00000E-01
 -1       191 0.00000E+00 7.50000E-01 1.00000E+00
 -1       192 0.00000E+00 5.00000E-01 1.00000E+00
 -1       193 0.00000E+00 2.50000E-01 1.00000E+00
 -1       194 0.00000E+00 5.00000E-01 1.50000E+00
 -1       195 0.00000E+00 7.50000E-01 2.00000E+00
 -1       196 0.00000E+00 5.00000E-01 2.00000E+00
 -1       197 0.00000E+00 2.50000E-01 2.00000E+00
 -1       198 0.00000E+00 5.00000E-01 2.50000E+00
 -1       199 0.00000E+00 7.50000E-01 3.00000E+00
 -1       200 0.00000E+00 5.00000E-01 3.00000E+00
 -1       201 0.00000E+00 2.50000E-01 3.00000E+00
 -1       202 0.00000E+00 5.00000E-01 3.50000E+00
 -1       203 0.00000E+00 7.50000E-01 4.00000E+00
 -1       204 0.00000E+00 5.00000E-01 4.00000E+00
 -1       205 0.00000E+00 2.50000E-01 4.00000E+00
 -1       206 0.00000E+00 5.00000E-01 4.50000E+00
 -1       207 0.00000E+00 7.50000E-01 5.00000E+00
 -1       208 0.00000E+00 5.00000E-01 5.00000E+00
 -1       209 0.00000E+00 2.50000E-01 5.00000E+00
 -1       210 0.00000E+00 5.00000E-01 5.50000E+00
 -1       211 0.00000E+00 7.50000E-01 6.00000E+00
 -1       212 0.00000E+00 5.00000E-01 6.00000E+00
 -1       213 0.00000E+00 2.50000E-01 6.00000E+00
 -1       219 5.00000E-01 5.00000E-01 5.00000E-01
 -1       220 5.00000E-01 2.50000E-01 1.00000E+00
 -1       221 2.50000E-01 5.00000E-01 1.00000E+00
 -1       222 5.00000E-01 5.00000E-01 1.00000E+00
 -1       223 7.50000E-01 5.00000E-01 1.00000E+00
 -1       224 5.00000E-01 7.50000E-01 1.00000E+00
 -1       225 5.00000E-01 5.00000E-01 1.50000E+00
 -1       226 5.00000E-01 2.50000E-01 2.00000E+00
 -1       227 2.50000E-01 5.00000E-01 2.00000E+00
 -1       228 5.00000E-01 5.00000E-01 2.00000E+00
 -1       229 7.50000E-01 5.00000E-01 2.00000E+00
 -1       230 5.00000E-01 7.50000E-01 2.00000E+00
 -1       231 5.00000E-01 5.00000E-01 2.50000E+00
 -1       232 5.00000E-01 2.50000E-01 3.00000E+00
 -1       233 2.50000E-01 5.00000E-01 3.00000E+00
 -1       234 5.00000E-01 5.00000E-01 3.00000E+00
 -1       235 7.50000E-01 5.00000E-01 3.00000E+00
 -1       236 5.00000E-01 7.50000E-01 3.00000E+00
 -1       237 5.00000E-01 5.00000E-01 3.50000E+00
 -1       238 5.00000E-01 2.50000E-01 4.00000E+00
 -1       239 2.50000E-01 5.00000E-01 4.00000E+00
 -1       240 5.00000E-01 5.00000E-01 4.00000E+00
 -1       241 7.50000E-01 5.00000E-01 4.00000E+00
 -1       242 5.00000E-01 7.50000E-01 4.00000E+00
 -1       243 5.00000E-01 5.00000E-01 4.50000E+00
 -1       244 5.00000E-01 2.50000E-01 5.00000E+00
 -1       245 2.50000E-01 5.00000E-01 5.00000E+00
 -1       246 5.00000E-01 5.00000E-01 5.00000E+00
 -1       247 7.50000E-01 5.00000E-01 5.00000E+00
 -1       248 5.00000E-01 7.50000E-01 5.00000E+00
 -1       249 5.00000E-01 5.00000E-01 5.50000E+00
 -1       250 5.00000E-01 2.50000E-01 6.00000E+00
 -1       251 2.50000E-01 5.00000E-01 6.00000E+00
 -1       252 5.00000E-01 5.00000E-01 6.00000E+00
 -1       253 7.50000E-01 5.00000E-01 6.00000E+00
 -1       254 5.00000E-01 7.50000E-01 6.00000E+00
 -3
    3C                            24                                     1
 -1         1    4    0    1
 -2         1        10        95        19        61       105       222       192         9        93
 -2        94        20        62       103       219       190       104       220       221       193
 -1         2    4    0    1
 -2        10         2        13        95       105        34       134       222        11        12
 -2        96        93       103        33       132       219       106       133       223       220
 -1         3    4    0    1
 -2        19        95        16         4       192       222       163        79        94        97
 -2        17        18       190       219       161        78       221       224       164       191
 -1         4    4    0    1
 -2        95        13         3        16       222       134        64       163        96        14
 -2        15        97       219       132        63       161       223       135       162       224
 -1         5    4    0    1
 -2        61       105       222       192        59       109       228       196       104       220
 -2       221       193        60       107       225       194       108       226       227       197
 -1         6    4    0    1
 -2       105        34       134       222       109        36       138       228       106       133
 -2       223       220       107        35       136       225       110       137       229       226
 -1         7    4    0    1
 -2       192       222       163        79       196       228       167        81       221       224
 -2       164       191       194       225       165        80       227       230       168       195
 -1         8    4    0    1
 -2       222       134        64       163       228       138        66       167       223       135
 -2       162       224       225       136        65       165       229       139       166       230
 -1         9    4    0    1
 -2        59       109       228       196        57       113       234       200       108       226
 -2       227       197        58       111       231       198       112       232       233       201
 -1        10    4    0    1
 -2       109        36       138       228       113        38       142       234       110       137
 -2       229       226       111        37       140       231       114       141       235       232
 -1        11    4    0    1
 -2       196       228       167        81       200       234       171        83       227       230
 -2       168       195       198       231       169        82       233       236       172       199
 -1        12    4    0    1
 -2       228       138        66       167       234       142        68       171       229       139
 -2       166       230       231       140        67       169       235       143       170       236
 -1        13    4    0    1
 -2        57       113       234       200        55       117       240       204       112       232
 -2       233       201        56       115       237       202       116       238       239       205
 -1        14    4    0    1
 -2       113        38       142       234       117        40       146       240       114       141
 -2       235       232       115        39       144       237       118       145       241       238
 -1        15    4    0    1
 -2       200       234       171        83       204       240       175        85       233       236
 -2       172       199       202       237       173        84       239       242       176       203
 -1        16    4    0    1
 -2       234       142        68       171       240       146        70       175       235       143
 -2       170       236       237       144        69       173       241       147       174       242
 -1        17    4    0    1
 -2        55       117       240       204        53       121       246       208       116       238
 -2       239       205        54       119       243       206       120       244       245       209
 -1        18    4    0    1
 -2       117        40       146       240       121        42       150       246       118       145
 -2       241       238       119        41       148       243       122       149       247       244
 -1        19    4    0    1
 -2       204       240       175        85       208       246       179        87       239       242
 -2       176       203       206       243       177        86       245       248       180       207
 -1        20    4    0    1
 -2       240       146        70       175       246       150        72       179       241       147
 -2       174       242       243       148        71       177       247       151       178       248
 -1        21    4    0    1
 -2        53       121       246       208        51       125       252       212       120       244
 -2       245       209        52       123       249       210       124       250       251       213
 -1        22    4    0    1
 -2       121        42       150       246       125        44       154       252       122       149
 -2       247       244       123        43       152       249       126       153       253       250
 -1        23    4    0    1
 -2       208       246       179        87       212       252       183        89       245       248
 -2       180       207       210       249       181        88       251       254       184       211
 -1        24    4    0    1
 -2       246       150        72       179       252       154        74       183       247       151
 -2       178       248       249       152        73       181       253       155       182       254
 -3
    1PSTEP                         1           1           1          
  100CL  101 5.00000E-03         201                     1    1           1
 -4  DISP        4    1
 -5  D1          1    2    1    0
 -5  D2          1    2    2    0
 -5  D3          1    2    3    0
 -5  ALL         1    2    0    0    1ALL
 -1         1 0.00000E+00 0.00000E+00 0.00000E+00
 -1         2 0.00000E+00 0.00000E+00 0.00000E+00
 -1         3 0.00000E+00 0.00000E+00 0.00000E+00
 -1         4 0.00000E+00 0.00000E+00 0.00000E+00
 -1         9 0.00000E+00 0.00000E+00 0.00000E+00
 -1        10 0.00000E+00 0.00000E+00 0.00000E+00
 -1        11 0.00000E+00 0.00000E+00 0.00000E+00
 -1        12 0.00000E+00 0.00000E+00 0.00000E+00
 -1        13 0.00000E+00 0.00000E+00 0.00000E+00
 -1        14 0.00000E+00 0.00000E+00 0.00000E+00
 -1        15 0.00000E+00 0.00000E+00 0.00000E+00
 -1        16 0.00000E+00 0.00000E+00 0.00000E+00
 -1        17 0.00000E+00 0.00000E+00 0.00000E+00
 -1        18 0.00000E+00 0.00000E+00 0.00000E+00
 -1        19 0.00000E+00 0.00000E+00 0.00000E+00
 -1        20 0.00000E+00 0.00000E+00 0.00000E+00
 -1        33 6.38372E-05-1.55675E-04-2.04536E-04
 -1        34 3.13406E-05-4.81978E-04-3.74442E-04
 -1        35 2.57767E-05-9.71006E-04-4.84024E-04
 -1        36 8.16571E-06-1.52871E-03-5.41069E-04
 -1        37-5.14823E-06-2.11241E-03-5.47904E-04
 -1        38-2.10792E-05-2.69535E-03-5.19241E-04
 -1        39-4.25366E-05-3.19648E-03-3.84902E-04
 -1        40-4.31370E-05-3.54450E-03-2.09635E-04
 -1        41-4.43161E-05-3.58215E-03-6.38692E-05
 -1        42-6.11569E-05-3.74161E-03-1.48297E-04
 -1        43 6.20017E-05-3.47396E-03 8.53870E-05
 -1        44-6.05998E-05-3.46675E-03 4.48712E-04
 -1        51 6.06538E-05-3.46676E-03 4.48693E-04
 -1        52-6.19326E-05-3.47396E-03 8.53752E-05
 -1        53 6.12351E-05-3.74162E-03-1.48306E-04
 -1        54 4.43963E-05-3.58215E-03-6.38702E-05
 -1        55 4.32139E-05-3.54450E-03-2.09630E-04
 -1        56 4.26061E-05-3.19648E-03-3.84894E-04
 -1        57 2.11383E-05-2.69535E-03-5.19231E-04
 -1        58 5.19510E-06-2.11241E-03-5.47892E-04
 -1        59-8.13183E-06-1.52871E-03-5.41058E-04
 -1        60-2.57550E-05-9.71006E-04-4.84013E-04
 -1        61-3.13297E-05-4.81978E-04-3.74434E-04
 -1        62-6.38336E-05-1.55674E-04-2.04531E-04
 -1        63-6.26609E-05-1.53944E-04 2.01105E-04
 -1        64-3.11697E-05-4.81419E-04 3.67080E-04
 -1        65-2.34130E-05-9.70543E-04 4.73721E-04
 -1        66-7.91105E-06-1.53520E-03 5.27363E-04
 -1        67 5.02281E-06-2.10266E-03 5.30996E-04
 -1        68 1.46061E-05-2.69587E-03 4.94078E-04
 -1        69 5.87246E-05-3.20716E-03 3.58315E-04
 -1        70 6.61200E-05-3.63581E-03 1.84597E-04
 -1        71-5.52482E-06-3.45991E-03 3.33400E-05
 -1        72-1.04885E-04-3.47867E-03 7.90513E-05
 -1        73 2.03368E-04-3.88973E-03-1.68224E-04
 -1        74 3.20018E-04-4.41404E-03-4.94675E-04
 -1        78 6.26641E-05-1.53945E-04 2.01109E-04
 -1        79 3.11797E-05-4.81420E-04 3.67088E-04
 -1        80 2.34334E-05-9.70545E-04 4.73731E-04
 -1        81 7.94322E-06-1.53520E-03 5.27375E-04
 -1        82-4.97823E-06-2.10266E-03 5.31008E-04
 -1        83-1.45497E-05-2.69587E-03 4.94089E-04
 -1        84-5.86583E-05-3.20716E-03 3.58322E-04
 -1        85-6.60462E-05-3.63581E-03 1.84602E-04
 -1        86 5.60077E-06-3.45991E-03 3.33394E-05
 -1        87 1.04957E-04-3.47867E-03 7.90456E-05
 -1        88-2.03305E-04-3.88973E-03-1.68239E-04
 -1        89-3.19970E-04-4.41405E-03-4.94695E-04
 -1        93 0.00000E+00 0.00000E+00 0.00000E+00
 -1        94 0.00000E+00 0.00000E+00 0.00000E+00
 -1        95 0.00000E+00 0.00000E+00 0.00000E+00
 -1        96 0.00000E+00 0.00000E+00 0.00000E+00
 -1        97 0.00000E+00 0.00000E+00 0.00000E+00
 -1       103 1.40247E-09-1.81957E-04-2.00741E-04
 -1       104-1.56198E-05-5.01410E-04-3.80351E-04
 -1       105 5.39098E-09-5.03939E-04-3.82998E-04
 -1       106 1.56304E-05-5.01410E-04-3.80355E-04
 -1       107 1.06572E-08-9.81099E-04-4.86737E-04
 -1       108-3.28780E-06-1.53091E-03-5.44772E-04
 -1       109 1.69671E-08-1.54155E-03-5.43701E-04
 -1       110 3.32170E-06-1.53091E-03-5.44778E-04
 -1       111 2.34680E-08-2.10356E-03-5.51696E-04
 -1       112 7.55227E-06-2.71944E-03-5.21389E-04
 -1       113 2.96818E-08-2.71269E-03-5.23001E-04
 -1       114-7.49297E-06-2.71944E-03-5.21394E-04
 -1       115 3.49901E-08-3.15820E-03-3.93371E-04
 -1       116 3.30304E-05-3.52095E-03-2.04069E-04
 -1       117 3.87485E-08-3.64330E-03-1.83176E-04
 -1       118-3.29530E-05-3.52094E-03-2.04071E-04
 -1       119 4.05185E-08-3.55561E-03-6.58499E-05
 -1       120-6.78560E-06-3.91233E-03-1.12763E-04
 -1       121 3.94359E-08-3.76644E-03-1.17707E-04
 -1       122 6.86448E-06-3.91232E-03-1.12759E-04
 -1       123 3.52480E-08-3.48426E-03-2.52230E-05
 -1       124 1.48412E-04-2.96675E-03 4.29746E-04
 -1       125 2.76065E-08-3.58894E-03 4.48851E-04
 -1       126-1.48358E-04-2.96675E-03 4.29756E-04
 -1       132 7.18009E-07-1.18693E-04-1.59652E-06
 -1       133 1.61405E-05-4.69716E-04-1.78032E-04
 -1       134 8.93935E-07-4.74430E-04-2.87052E-06
 -1       135-1.53926E-05-4.69823E-04 1.71225E-04
 -1       136-1.53927E-07-9.53467E-04-5.56709E-06
 -1       137 4.82451E-06-1.52680E-03-2.68645E-04
 -1       138 5.32322E-07-1.51900E-03-7.33934E-06
 -1       139-3.65371E-06-1.52850E-03 2.55238E-04
 -1       140 1.71912E-06-2.12652E-03-9.16023E-06
 -1       141-1.04334E-05-2.68084E-03-2.44354E-04
 -1       142 5.55049E-06-2.68736E-03-5.08176E-06
 -1       143 1.13412E-05-2.68701E-03 2.24253E-04
 -1       144-8.85409E-06-3.22054E-03-1.26620E-05
 -1       145-2.02568E-05-3.56342E-03-1.32019E-04
 -1       146-1.29258E-05-3.46647E-03-2.47589E-05
 -1       147 1.81475E-05-3.58763E-03 1.00774E-04
 -1       148 2.71069E-05-3.68254E-03-2.36761E-05
 -1       149-3.27861E-05-3.42319E-03-4.68314E-05
 -1       150 8.51502E-05-3.45022E-03-1.88153E-06
 -1       151 2.85416E-05-3.35526E-03 3.36142E-08
 -1       152-1.26834E-04-3.72219E-03 1.17487E-05
 -1       153 7.02793E-05-3.63647E-03 1.91226E-04
 -1       154-1.19863E-04-2.50391E-03-2.06418E-05
 -1       155-6.59923E-05-3.89036E-03-2.38115E-04
 -1       161 1.19007E-09-1.80755E-04 1.97022E-04
 -1       162-1.53678E-05-5.00770E-04 3.73631E-04
 -1       163 4.94531E-09-5.01488E-04 3.75806E-04
 -1       164 1.53776E-05-5.00770E-04 3.73635E-04
 -1       165 9.99581E-09-9.81161E-04 4.76711E-04
 -1       166-3.93516E-06-1.52827E-03 5.30710E-04
 -1       167 1.60520E-08-1.53750E-03 5.32946E-04
 -1       168 3.96728E-06-1.52827E-03 5.30715E-04
 -1       169 2.23561E-08-2.10443E-03 5.31004E-04
 -1       170 7.55725E-06-2.71935E-03 5.01422E-04
 -1       171 2.82737E-08-2.68136E-03 4.97010E-04
 -1       172-7.50070E-06-2.71935E-03 5.01427E-04
 -1       173 3.34140E-08-3.17883E-03 3.69071E-04
 -1       174 3.14912E-05-3.46258E-03 1.71111E-04
 -1       175 3.69741E-08-3.56258E-03 1.72770E-04
 -1       176-3.14173E-05-3.46258E-03 1.71113E-04
 -1       177 3.84883E-08-3.51261E-03 2.08823E-05
 -1       178-4.46646E-05-4.00950E-03 7.16269E-05
 -1       179 3.68598E-08-3.58041E-03 4.82003E-05
 -1       180 4.47379E-05-4.00950E-03 7.16241E-05
 -1       181 3.22609E-08-3.68422E-03-6.10377E-05
 -1       182 1.14657E-04-2.56307E-03-4.71340E-04
 -1       183 2.47483E-08-4.35513E-03-4.76530E-04
 -1       184-1.14607E-04-2.56307E-03-4.71351E-04
 -1       190-7.14022E-07-1.18693E-04-1.59220E-06
 -1       191 1.54032E-05-4.69824E-04 1.71233E-04
 -1       192-8.83138E-07-4.74431E-04-2.86239E-06
 -1       193-1.61295E-05-4.69716E-04-1.78024E-04
 -1       194 1.75243E-07-9.53468E-04-5.55668E-06
 -1       195 3.68624E-06-1.52850E-03 2.55250E-04
 -1       196-4.99423E-07-1.51900E-03-7.32777E-06
 -1       197-4.79110E-06-1.52680E-03-2.68633E-04
 -1       198-1.67332E-06-2.12652E-03-9.14874E-06
 -1       199-1.12846E-05-2.68701E-03 2.24263E-04
 -1       200-5.49358E-06-2.68736E-03-5.07170E-06
 -1       201 1.04913E-05-2.68084E-03-2.44343E-04
 -1       202 8.92185E-06-3.22054E-03-1.26538E-05
 -1       203-1.80742E-05-3.58763E-03 1.00779E-04
 -1       204 1.29991E-05-3.46647E-03-2.47544E-05
 -1       205 2.03319E-05-3.56342E-03-1.32015E-04
 -1       206-2.70284E-05-3.68254E-03-2.36771E-05
 -1       207-2.84700E-05-3.35526E-03 2.55407E-08
 -1       208-8.50796E-05-3.45022E-03-1.89079E-06
 -1       209 3.28600E-05-3.42319E-03-4.68385E-05
 -1       210 1.26900E-04-3.72220E-03 1.17378E-05
 -1       211 6.60365E-05-3.89036E-03-2.38131E-04
 -1       212 1.19906E-04-2.50390E-03-2.06586E-05
 -1       213-7.02300E-05-3.63647E-03 1.91201E-04
 -1       219 1.56454E-09-1.44477E-04-1.42399E-06
 -1       220 5.47561E-09-4.89544E-04-1.83679E-04
 -1       221-4.09410E-07-4.91072E-04-3.62431E-06
 -1       222 5.40180E-09-4.92474E-04-3.79018E-06
 -1       223 4.20036E-07-4.91072E-04-3.62819E-06
 -1       224 5.25270E-09-4.88172E-04 1.76736E-04
 -1       225 1.04272E-08-9.65635E-04-5.11490E-06
 -1       226 1.68170E-08-1.53433E-03-2.72941E-04
 -1       227-3.47328E-07-1.52023E-03-6.84425E-06
 -1       228 1.66537E-08-1.52209E-03-8.43210E-06
 -1       229 3.80432E-07-1.52023E-03-6.84986E-06
 -1       230 1.63594E-08-1.53269E-03 2.57779E-04
 -1       231 2.27866E-08-2.12511E-03-7.44953E-06
 -1       232 2.93503E-08-2.68879E-03-2.49379E-04
 -1       233-2.19514E-06-2.68458E-03-1.26764E-05
 -1       234 2.91053E-08-2.68169E-03-1.39536E-05
 -1       235 2.25275E-06-2.68458E-03-1.26814E-05
 -1       236 2.86476E-08-2.67161E-03 2.27191E-04
 -1       237 3.38051E-08-3.19292E-03-9.32135E-06
 -1       238 3.84299E-08-3.61223E-03-1.24101E-04
 -1       239 5.82794E-06-3.45425E-03-1.43441E-05
 -1       240 3.81943E-08-3.47817E-03-2.00466E-05
 -1       241-5.75290E-06-3.45425E-03-1.43457E-05
 -1       242 3.75455E-08-3.57485E-03 8.84884E-05
 -1       243 3.85964E-08-3.65679E-03-2.11821E-05
 -1       244 3.90453E-08-3.52155E-03-2.04488E-05
 -1       245-3.38171E-05-3.61258E-03-2.62111E-05
 -1       246 3.91343E-08-3.65265E-03-1.97127E-05
 -1       247 3.38919E-05-3.61258E-03-2.62083E-05
 -1       248 3.77226E-08-3.43775E-03-1.00406E-05
 -1       249 3.23611E-08-3.52366E-03-1.34153E-05
 -1       250 2.90426E-08-4.08242E-03 1.74572E-04
 -1       251 3.06759E-05-2.57259E-03-1.03139E-05
 -1       252 2.98408E-08-3.12340E-03-1.61872E-05
 -1       253-3.06249E-05-2.57259E-03-1.02980E-05
 -1       254 2.75942E-08-4.41294E-03-2.54219E-04
 -3
    1PSTEP                         2           2           1          
  100CL  102 1.00000E-02         201                     1    2           1
 -4  DISP        4    1
 -5  D1          1    2    1    0
 -5  D2          1    2    2    0
 -5  D3          1    2    3    0
 -5  ALL         1    2    0    0    1ALL
 -1         1 0.00000E+00 0.00000E+00 0.00000E+00
 -1         2 0.00000E+00 0.00000E+00 0.00000E+00
 -1         3 0.00000E+00 0.00000E+00 0.00000E+00
 -1         4 0.00000E+00 0.00000E+00 0.00000E+00
 -1         9 0.00000E+00 0.00000E+00 0.00000E+00
 -1        10 0.00000E+00 0.00000E+00 0.00000E+00
 -1        11 0.00000E+00 0.00000E+00 0.00000E+00
 -1        12 0.00000E+00 0.00000E+00 0.00000E+00
 -1        13 0.00000E+00 0.00000E+00 0.00000E+00
 -1        14 0.00000E+00 0.00000E+00 0.00000E+00
 -1        15 0.00000E+00 0.00000E+00 0.00000E+00
 -1        16 0.00000E+00 0.00000E+00 0.00000E+00
 -1        17 0.00000E+00 0.00000E+00 0.00000E+00
 -1        18 0.00000E+00 0.00000E+00 0.00000E+00
 -1        19 0.00000E+00 0.00000E+00 0.00000E+00
 -1        20 0.00000E+00 0.00000E+00 0.00000E+00
 -1        33-3.19967E-05 7.91750E-05 1.03010E-04
 -1        34-1.54878E-05 2.44818E-04 1.87746E-04
 -1        35-1.27672E-05 4.92561E-04 2.42734E-04
 -1        36-4.53429E-06 7.74326E-04 2.70065E-04
 -1        37 4.34366E-06 1.07191E-03 2.71868E-04
 -1        38 1.35658E-05 1.36772E-03 2.50338E-04
 -1        39 2.05309E-05 1.60868E-03 1.85224E-04
 -1        40 1.36469E-05 1.78305E-03 9.24165E-05
 -1        41 3.59087E-05 1.81830E-03 2.07934E-05
 -1        42 4.64123E-05 1.87364E-03 1.12084E-05
 -1        43-4.26443E-05 1.69354E-03-7.83501E-05
 -1        44-1.58813E-04 1.60024E-03-2.33965E-04
 -1        51 1.58751E-04 1.60033E-03-2.33955E-04
 -1        52 4.26234E-05 1.69358E-03-7.83613E-05
 -1        53-4.64345E-05 1.87369E-03 1.12078E-05
 -1        54-3.59199E-05 1.81834E-03 2.07936E-05
 -1        55-1.36560E-05 1.78310E-03 9.24162E-05
 -1        56-2.05346E-05 1.60872E-03 1.85227E-04
 -1        57-1.35699E-05 1.36775E-03 2.50343E-04
 -1        58-4.34736E-06 1.07193E-03 2.71873E-04
 -1        59 4.52944E-06 7.74346E-04 2.70071E-04
 -1        60 1.27622E-05 4.92576E-04 2.42738E-04
 -1        61 1.54831E-05 2.44828E-04 1.87750E-04
 -1        62 3.19939E-05 7.91802E-05 1.03013E-04
 -1        63 3.19961E-05 7.91601E-05-1.02992E-04
 -1        64 1.54963E-05 2.44809E-04-1.87706E-04
 -1        65 1.27419E-05 4.92582E-04-2.42678E-04
 -1        66 4.52158E-06 7.74395E-04-2.69991E-04
 -1        67-4.22557E-06 1.07175E-03-2.71772E-04
 -1        68-1.33445E-05 1.36754E-03-2.50188E-04
 -1        69-2.10140E-05 1.60919E-03-1.85074E-04
 -1        70-1.43973E-05 1.78433E-03-9.22821E-05
 -1        71-3.38490E-05 1.81574E-03-2.06220E-05
 -1        72-4.19685E-05 1.86849E-03-1.07668E-05
 -1        73 3.34583E-05 1.70388E-03 7.88679E-05
 -1        74 1.44178E-04 1.62027E-03 2.34194E-04
 -1        78-3.19900E-05 7.91640E-05-1.02990E-04