    1C
    1UUSER                                                              
    1UDATE              11.july.2018                                    
    1UTIME              15:05:14                                        
    1UHOST                                                              
    1UPGM               CalculiX                                        
    1UVERSION           Version 2.13                             
    1UCOMPILETIME       jue jun 14 00:40:39 CEST 2018                    
    1UDIR                                                               
    1UDBN                                                               
    1UMAT    1EL                                                        
    2C                            81                                     1
 -1         5 0.00000E+00 0.00000E+00 8.00000E+00
 -1         6 1.00000E+00 0.00000E+00 8.00000E+00
 -1         7 1.00000E+00 1.00000E+00 8.00000E+00
 -1         8 0.00000E+00 1.00000E+00 8.00000E+00
 -1        21 2.50000E-01 0.00000E+00 8.00000E+00
 -1        22 5.00000E-01 0.00000E+00 8.00000E+00
 -1        23 7.50000E-01 0.00000E+00 8.00000E+00
 -1        24 1.00000E+00 2.50000E-01 8.00000E+00
 -1        25 1.00000E+00 5.00000E-01 8.00000E+00
 -1        26 1.00000E+00 7.50000E-01 8.00000E+00
 -1        27 7.50000E-01 1.00000E+00 8.00000E+00
 -1        28 5.00000E-01 1.00000E+00 8.00000E+00
 -1        29 2.50000E-01 1.00000E+00 8.00000E+00
 -1        30 0.00000E+00 7.50000E-01 8.00000E+00
 -1        31 0.00000E+00 5.00000E-01 8.00000E+00
 -1        32 0.00000E+00 2.50000E-01 8.00000E+00
 -1        44 1.00000E+00 0.00000E+00 6.00000E+00
 -1        45 1.00000E+00 0.00000E+00 6.50000E+00
 -1        46 1.00000E+00 0.00000E+00 7.00000E+00
 -1        47 1.00000E+00 0.00000E+00 7.50000E+00
 -1        48 0.00000E+00 0.00000E+00 7.50000E+00
 -1        49 0.00000E+00 0.00000E+00 7.00000E+00
 -1        50 0.00000E+00 0.00000E+00 6.50000E+00
 -1        51 0.00000E+00 0.00000E+00 6.00000E+00
 -1        74 1.00000E+00 1.00000E+00 6.00000E+00
 -1        75 1.00000E+00 1.00000E+00 6.50000E+00
 -1        76 1.00000E+00 1.00000E+00 7.00000E+00
 -1        77 1.00000E+00 1.00000E+00 7.50000E+00
 -1        89 0.00000E+00 1.00000E+00 6.00000E+00
 -1        90 0.00000E+00 1.00000E+00 6.50000E+00
 -1        91 0.00000E+00 1.00000E+00 7.00000E+00
 -1        92 0.00000E+00 1.00000E+00 7.50000E+00
 -1        98 5.00000E-01 2.50000E-01 8.00000E+00
 -1        99 2.50000E-01 5.00000E-01 8.00000E+00
 -1       100 5.00000E-01 5.00000E-01 8.00000E+00
 -1       101 7.50000E-01 5.00000E-01 8.00000E+00
 -1       102 5.00000E-01 7.50000E-01 8.00000E+00
 -1       124 2.50000E-01 0.00000E+00 6.00000E+00
 -1       125 5.00000E-01 0.00000E+00 6.00000E+00
 -1       126 7.50000E-01 0.00000E+00 6.00000E+00
 -1       127 5.00000E-01 0.00000E+00 6.50000E+00
 -1       128 2.50000E-01 0.00000E+00 7.00000E+00
 -1       129 5.00000E-01 0.00000E+00 7.00000E+00
 -1       130 7.50000E-01 0.00000E+00 7.00000E+00
 -1       131 5.00000E-01 0.00000E+00 7.50000E+00
 -1       153 1.00000E+00 2.50000E-01 6.00000E+00
 -1       154 1.00000E+00 5.00000E-01 6.00000E+00
 -1       155 1.00000E+00 7.50000E-01 6.00000E+00
 -1       156 1.00000E+00 5.00000E-01 6.50000E+00
 -1       157 1.00000E+00 2.50000E-01 7.00000E+00
 -1       158 1.00000E+00 5.00000E-01 7.00000E+00
 -1       159 1.00000E+00 7.50000E-01 7.00000E+00
 -1       160 1.00000E+00 5.00000E-01 7.50000E+00
 -1       182 7.50000E-01 1.00000E+00 6.00000E+00
 -1       183 5.00000E-01 1.00000E+00 6.00000E+00
 -1       184 2.50000E-01 1.00000E+00 6.00000E+00
 -1       185 5.00000E-01 1.00000E+00 6.50000E+00
 -1       186 7.50000E-01 1.00000E+00 7.00000E+00
 -1       187 5.00000E-01 1.00000E+00 7.00000E+00
 -1       188 2.50000E-01 1.00000E+00 7.00000E+00
 -1       189 5.00000E-01 1.00000E+00 7.50000E+00
 -1       211 0.00000E+00 7.50000E-01 6.00000E+00
 -1       212 0.00000E+00 5.00000E-01 6.00000E+00
 -1       213 0.00000E+00 2.50000E-01 6.00000E+00
 -1       214 0.00000E+00 5.00000E-01 6.50000E+00
 -1       215 0.00000E+00 7.50000E-01 7.00000E+00
 -1       216 0.00000E+00 5.00000E-01 7.00000E+00
 -1       217 0.00000E+00 2.50000E-01 7.00000E+00
 -1       218 0.00000E+00 5.00000E-01 7.50000E+00
 -1       250 5.00000E-01 2.50000E-01 6.00000E+00
 -1       251 2.50000E-01 5.00000E-01 6.00000E+00
 -1       252 5.00000E-01 5.00000E-01 6.00000E+00
 -1       253 7.50000E-01 5.00000E-01 6.00000E+00
 -1       254 5.00000E-01 7.50000E-01 6.00000E+00
 -1       255 5.00000E-01 5.00000E-01 6.50000E+00
 -1       256 5.00000E-01 2.50000E-01 7.00000E+00
 -1       257 2.50000E-01 5.00000E-01 7.00000E+00
 -1       258 5.00000E-01 5.00000E-01 7.00000E+00
 -1       259 7.50000E-01 5.00000E-01 7.00000E+00
 -1       260 5.00000E-01 7.50000E-01 7.00000E+00
 -1       261 5.00000E-01 5.00000E-01 7.50000E+00
 -3
    3C                             8                                     1
 -1        25    4    0    1
 -2        51       125       252       212        49       129       258       216       124       250
 -2       251       213        50       127       255       214       128       256       257       217
 -1        26    4    0    1
 -2       125        44       154       252       129        46       158       258       126       153
 -2       253       250       127        45       156       255       130       157       259       256
 -1        27    4    0    1
 -2       212       252       183        89       216       258       187        91       251       254
 -2       184       211       214       255       185        90       257       260       188       215
 -1        28    4    0    1
 -2       252       154        74       183       258       158        76       187       253       155
 -2       182       254       255       156        75       185       259       159       186       260
 -1        29    4    0    1
 -2        49       129       258       216         5        22       100        31       128       256
 -2       257       217        48       131       261       218        21        98        99        32
 -1        30    4    0    1
 -2       129        46       158       258        22         6        25       100       130       157
 -2       259       256       131        47       160       261        23        24       101        98
 -1        31    4    0    1
 -2       216       258       187        91        31       100        28         8       257       260
 -2       188       215       218       261       189        92        99       102        29        30
 -1        32    4    0    1
 -2       258       158        76       187       100        25         7        28       259       159
 -2       186       260       261       160        77       189       101        26        27       102
 -3
    1PSTEP                         1           1           1          
  100CL  101 5.00000E-03          81                     1    1           1
 -4  DISP        4    1
 -5  D1          1    2    1    0
 -5  D2          1    2    2    0
 -5  D3          1    2    3    0
 -5  ALL         1    2    0    0    1ALL
 -1         5 0.00000E+00 0.00000E+00 0.00000E+00
 -1         6 0.00000E+00 0.00000E+00 0.00000E+00
 -1         7 0.00000E+00 0.00000E+00 0.00000E+00
 -1         8 0.00000E+00 0.00000E+00 0.00000E+00
 -1        21 0.00000E+00 0.00000E+00 0.00000E+00
 -1        22 0.00000E+00 0.00000E+00 0.00000E+00
 -1        23 0.00000E+00 0.00000E+00 0.00000E+00
 -1        24 0.00000E+00 0.00000E+00 0.00000E+00
 -1        25 0.00000E+00 0.00000E+00 0.00000E+00
 -1        26 0.00000E+00 0.00000E+00 0.00000E+00
 -1        27 0.00000E+00 0.00000E+00 0.00000E+00
 -1        28 0.00000E+00 0.00000E+00 0.00000E+00
 -1        29 0.00000E+00 0.00000E+00 0.00000E+00
 -1        30 0.00000E+00 0.00000E+00 0.00000E+00
 -1        31 0.00000E+00 0.00000E+00 0.00000E+00
 -1        32 0.00000E+00 0.00000E+00 0.00000E+00
 -1        44-6.99729E-05-3.46677E-03 4.47744E-04
 -1        45 5.52605E-05-2.55824E-03 7.85170E-04
 -1        46-4.50501E-05-1.79519E-03 9.49821E-04
 -1        47 1.31323E-04-6.74281E-04 5.42200E-04
 -1        48-1.31322E-04-6.74280E-04 5.42197E-04
 -1        49 4.50454E-05-1.79519E-03 9.49821E-04
 -1        50-5.52503E-05-2.55824E-03 7.85169E-04
 -1        51 6.99770E-05-3.46678E-03 4.47745E-04
 -1        74 3.52567E-04-4.41712E-03-4.93937E-04
 -1        75 2.02843E-04-2.97373E-03-7.85621E-04
 -1        76-1.15966E-04-1.59712E-03-9.51196E-04
 -1        77-2.11277E-04-5.24942E-04-5.57074E-04
 -1        89-3.52554E-04-4.41711E-03-4.93934E-04
 -1        90-2.02836E-04-2.97372E-03-7.85614E-04
 -1        91 1.15965E-04-1.59712E-03-9.51203E-04
 -1        92 2.11276E-04-5.24942E-04-5.57077E-04
 -1        98 0.00000E+00 0.00000E+00 0.00000E+00
 -1        99 0.00000E+00 0.00000E+00 0.00000E+00
 -1       100 0.00000E+00 0.00000E+00 0.00000E+00
 -1       101 0.00000E+00 0.00000E+00 0.00000E+00
 -1       102 0.00000E+00 0.00000E+00 0.00000E+00
 -1       124 1.39956E-04-2.96363E-03 4.28475E-04
 -1       125 1.44611E-08-3.57991E-03 4.47631E-04
 -1       126-1.39941E-04-2.96363E-03 4.28475E-04
 -1       127-3.79358E-10-2.55842E-03 9.02003E-04
 -1       128-7.12367E-06-1.95262E-03 9.47231E-04
 -1       129 3.81480E-09-1.81520E-03 9.39762E-04
 -1       130 7.12574E-06-1.95262E-03 9.47231E-04
 -1       131-5.64689E-10-7.36700E-04 5.56269E-04
 -1       153 7.88074E-05-3.61788E-03 1.90511E-04
 -1       154-1.10387E-04-2.48232E-03-2.07168E-05
 -1       155-8.49721E-05-3.89238E-03-2.37366E-04
 -1       156-1.16873E-04-2.78687E-03-6.51920E-05
 -1       157-2.30529E-05-1.50920E-03 3.92562E-04
 -1       158 8.50043E-05-1.56419E-03-2.95174E-05
 -1       159 5.17135E-05-1.47124E-03-4.11087E-04
 -1       160 3.89080E-05-6.57479E-04 4.81693E-06
 -1       182 1.35184E-04-2.56161E-03-4.69858E-04
 -1       183 4.45447E-09-4.33629E-03-4.76000E-04
 -1       184-1.35176E-04-2.56161E-03-4.69866E-04
 -1       185 5.43660E-10-2.82185E-03-8.70705E-04
 -1       186-4.76516E-05-2.16157E-03-9.81848E-04
 -1       187 1.09700E-09-1.83509E-03-9.60901E-04
 -1       188 4.76529E-05-2.16157E-03-9.81849E-04
 -1       189-2.68561E-10-7.22485E-04-5.64561E-04
 -1       211 8.49766E-05-3.89236E-03-2.37377E-04
 -1       212 1.10395E-04-2.48231E-03-2.07080E-05
 -1       213-7.88052E-05-3.61789E-03 1.90513E-04
 -1       214 1.16873E-04-2.78687E-03-6.51934E-05
 -1       215-5.17109E-05-1.47124E-03-4.11087E-04
 -1       216-8.50008E-05-1.56419E-03-2.95196E-05
 -1       217 2.30530E-05-1.50920E-03 3.92562E-04
 -1       218-3.89080E-05-6.57480E-04 4.81690E-06
 -1       250 5.69319E-09-4.09002E-03 1.74155E-04
 -1       251 3.78301E-05-2.56874E-03-1.04165E-05
 -1       252-6.12999E-09-3.12885E-03-1.59480E-05
 -1       253-3.78316E-05-2.56874E-03-1.04263E-05
 -1       254-4.61780E-10-4.39519E-03-2.54015E-04
 -1       255 2.18300E-09-2.59704E-03-3.17420E-05
 -1       256 1.12486E-09-1.60547E-03 3.94542E-04
 -1       257-4.21923E-05-1.74699E-03-1.19744E-05
 -1       258-1.07363E-09-1.79015E-03-1.45543E-05
 -1       259 4.21926E-05-1.74699E-03-1.19720E-05
 -1       260-1.11716E-10-1.62658E-03-4.17293E-04
 -1       261 7.37987E-10-7.16002E-04-1.82775E-06
 -3
    1PSTEP                         2           2           1          
  100CL  102 1.00000E-02          81                     1    2           1
 -4  DISP        4    1
 -5  D1          1    2    1    0
 -5  D2          1    2    2    0
 -5  D3          1    2    3    0
 -5  ALL         1    2    0    0    1ALL
 -1         5 0.00000E+00 0.00000E+00 0.00000E+00
 -1         6 0.00000E+00 0.00000E+00 0.00000E+00
 -1         7 0.00000E+00 0.00000E+00 0.00000E+00
 -1         8 0.00000E+00 0.00000E+00 0.00000E+00
 -1        21 0.00000E+00 0.00000E+00 0.00000E+00
 -1        22 0.00000E+00 0.00000E+00 0.00000E+00
 -1        23 0.00000E+00 0.00000E+00 0.00000E+00
 -1        24 0.00000E+00 0.00000E+00 0.00000E+00
 -1        25 0.00000E+00 0.00000E+00 0.00000E+00
 -1        26 0.00000E+00 0.00000E+00 0.00000E+00
 -1        27 0.00000E+00 0.00000E+00 0.00000E+00
 -1        28 0.00000E+00 0.00000E+00 0.00000E+00
 -1        29 0.00000E+00 0.00000E+00 0.00000E+00
 -1        30 0.00000E+00 0.00000E+00 0.00000E+00
 -1        31 0.00000E+00 0.00000E+00 0.00000E+00
 -1        32 0.00000E+00 0.00000E+00 0.00000E+00
 -1        44-1.50942E-04 1.60902E-03-2.33933E-04
 -1        45-3.51402E-05 1.24944E-03-3.77316E-04
 -1        46 4.14741E-05 9.13801E-04-4.32306E-04
 -1        47-5.40249E-05 3.69779E-04-2.83998E-04
 -1        48 5.40253E-05 3.69780E-04-2.84001E-04
 -1        49-4.14763E-05 9.13802E-04-4.32308E-04
 -1        50 3.51534E-05 1.24944E-03-3.77315E-04
 -1        51 1.50962E-04 1.60899E-03-2.33935E-04
 -1        74 1.49808E-04 1.61398E-03 2.34171E-04
 -1        75 3.39234E-05 1.25157E-03 3.77292E-04
 -1        76-4.07004E-05 9.12772E-04 4.32298E-04
 -1        77 5.43992E-05 3.69010E-04 2.84078E-04
 -1        89-1.49790E-04 1.61400E-03 2.34164E-04
 -1        90-3.39112E-05 1.25157E-03 3.77291E-04
 -1        91 4.06973E-05 9.12770E-04 4.32296E-04
 -1        92-5.43992E-05 3.69008E-04 2.84076E-04
 -1        98 0.00000E+00 0.00000E+00 0.00000E+00
 -1        99 0.00000E+00 0.00000E+00 0.00000E+00
 -1       100 0.00000E+00 0.00000E+00 0.00000E+00
 -1       101 0.00000E+00 0.00000E+00 0.00000E+00
 -1       102 0.00000E+00 0.00000E+00 0.00000E+00
 -1       124 4.62595E-06 1.47970E-03-2.20457E-04
 -1       125 1.55075E-08 1.76837E-03-2.31330E-04
 -1       126-4.60427E-06 1.47970E-03-2.20455E-04
 -1       127 2.53747E-09 1.30142E-03-4.17338E-04
 -1       128-3.41699E-06 9.59139E-04-4.63530E-04
 -1       129 3.17381E-09 8.89546E-04-4.72292E-04
 -1       130 3.42007E-06 9.59140E-04-4.63529E-04
 -1       131-4.53984E-10 3.75457E-04-2.76038E-04
 -1       153 1.24617E-04 1.91668E-03-1.03867E-04
 -1       154 7.37571E-07 1.69366E-03 1.03778E-07
 -1       155-1.24727E-04 1.91807E-03 1.04114E-04
 -1       156 6.68968E-07 1.40668E-03 3.30857E-07
 -1       157-2.49406E-05 7.92900E-04-1.86045E-04
 -1       158-4.82571E-07 8.09785E-04 1.54848E-07
 -1       159 2.48374E-05 7.92714E-04 1.86141E-04
 -1       160-2.18790E-07 3.08179E-04-2.56322E-08
 -1       182 4.82448E-06 1.47755E-03 2.20667E-04
 -1       183 1.53942E-08 1.77250E-03 2.31474E-04
 -1       184-4.80445E-06 1.47754E-03 2.20661E-04
 -1       185 1.14976E-09 1.30290E-03 4.17191E-04
 -1       186-3.23869E-06 9.60221E-04 4.63704E-04
 -1       187 3.25582E-09 8.89539E-04 4.72407E-04
 -1       188 3.24136E-06 9.60222E-04 4.63703E-04
 -1       189-7.01392E-10 3.75337E-04 2.76074E-04
 -1       211 1.24738E-04 1.91808E-03 1.04108E-04
 -1       212-7.23068E-07 1.69365E-03 1.02203E-07
 -1       213-1.24605E-04 1.91666E-03-1.03875E-04
 -1       214-6.68750E-07 1.40668E-03 3.24958E-07
 -1       215-2.48347E-05 7.92711E-04 1.86139E-04
 -1       216 4.89143E-07 8.09785E-04 1.51925E-07
 -1       217 2.49439E-05 7.92902E-04-1.86047E-04
 -1       218 2.19340E-07 3.08179E-04-2.53277E-08
 -1       250 4.97561E-09 1.90995E-03-1.03060E-04
 -1       251-2.21431E-07 1.20948E-03 5.77868E-08
 -1       252-7.54112E-09 1.54262E-03 7.98798E-08
 -1       253 2.23669E-07 1.20949E-03 5.09950E-08
 -1       254 5.38380E-09 1.91168E-03 1.03454E-04
 -1       255 3.94242E-09 1.37515E-03 1.66551E-07
 -1       256 7.29360E-10 7.83348E-04-2.07258E-04
 -1       257 2.29101E-07 9.13997E-04 5.80224E-08
 -1       258-1.32435E-09 8.12393E-04 7.26345E-08
 -1       259-2.28071E-07 9.13997E-04 6.12902E-08
 -1       260 6.63505E-10 7.83396E-04 2.07373E-04
 -1       261 1.12798E-09 3.48457E-04 1.25380E-08
 -3
    1PSTEP                         3           3           1          
  100CL  103 1.50000E-02          81                     1    3           1
 -4  DISP        4    1
 -5  D1          1    2    1    0
 -5  D2          1    2    2    0
 -5  D3          1    2    3    0
 -5  ALL         1    2    0    0    1ALL
 -1         5 0.00000E+00 0.00000E+00 0.00000E+00
 -1         6 0.00000E+00 0.00000E+00 0.00000E+00
 -1         7 0.00000E+00 0.00000E+00 0.00000E+00
 -1         8 0.00000E+00 0.00000E+00 0.00000E+00
 -1        21 0.00000E+00 0.00000E+00 0.00000E+00
 -1        22 0.00000E+00 0.00000E+00 0.00000E+00
 -1        23 0.00000E+00 0.00000E+00 0.00000E+00
 -1        24 0.00000E+00 0.00000E+00 0.00000E+00
 -1        25 0.00000E+00 0.00000E+00 0.00000E+00
 -1        26 0.00000E+00 0.00000E+00 0.00000E+00
 -1        27 0.00000E+00 0.00000E+00 0.00000E+00
 -1        28 0.00000E+00 0.00000E+00 0.00000E+00
 -1        29 0.00000E+00 0.00000E+00 0.00000E+00
 -1        30 0.00000E+00 0.00000E+00 0.00000E+00
 -1        31 0.00000E+00 0.00000E+00 0.00000E+00
 -1        32 0.00000E+00 0.00000E+00 0.00000E+00
 -1        44 1.21147E-04-1.27335E-03 1.85396E-04
 -1        45 2.78893E-05-9.89535E-04 2.98766E-04
 -1        46-3.29773E-05-7.24068E-04 3.42138E-04
 -1        47 4.27131E-05-2.93229E-04 2.25098E-04
 -1        48-4.27137E-05-2.93230E-04 2.25100E-04
 -1        49 3.29773E-05-7.24068E-04 3.42138E-04
 -1        50-2.79068E-05-9.89529E-04 2.98770E-04
 -1        51-1.21184E-04-1.27331E-03 1.85403E-04
 -1        74-1.22029E-04-1.27295E-03-1.85425E-04
 -1        75-2.83081E-05-9.89229E-04-2.98752E-04
 -1        76 3.32542E-05-7.24300E-04-3.42128E-04
 -1        77-4.25886E-05-2.93308E-04-2.25106E-04
 -1        89 1.21993E-04-1.27298E-03-1.85413E-04
 -1        90 2.82953E-05-9.89233E-04-2.98747E-04
 -1        91-3.32528E-05-7.24297E-04-3.42128E-04
 -1        92 4.25891E-05-2.93306E-04-2.25105E-04
 -1        98 0.00000E+00 0.00000E+00 0.00000E+00
 -1        99 0.00000E+00 0.00000E+00 0.00000E+00
 -1       100 0.00000E+00 0.00000E+00 0.00000E+00
 -1       101 0.00000E+00 0.00000E+00 0.00000E+00
 -1       102 0.00000E+00 0.00000E+00 0.00000E+00
 -1       124-4.44619E-06-1.17236E-03 1.74709E-04
 -1       125-2.27508E-08-1.40061E-03 1.83322E-04
 -1       126 4.41082E-06-1.17237E-03 1.74710E-04
 -1       127-4.89288E-09-1.03107E-03 3.30372E-04
 -1       128 2.77628E-06-7.59672E-04 3.67143E-04
 -1       129-4.30806E-09-7.04670E-04 3.74188E-04
 -1       130-2.78205E-06-7.59675E-04 3.67142E-04
 -1       131 3.11529E-10-2.97528E-04 2.18657E-04
 -1       153-1.00115E-04-1.51911E-03 8.23516E-05
 -1       154-2.86367E-07-1.34580E-03-7.67880E-09
 -1       155 1.00452E-04-1.51937E-03-8.23799E-05
 -1       156-6.26717E-08-1.11466E-03 2.55780E-08
 -1       157 2.00652E-05-6.28468E-04 1.47305E-04
 -1       158 3.90803E-08-6.41652E-04 4.44109E-09
 -1       159-2.01469E-05-6.28473E-04-1.47318E-04
 -1       160 2.40486E-08-2.43922E-04 6.22036E-09
 -1       182-4.35553E-06-1.17244E-03-1.74726E-04
 -1       183-2.00630E-08-1.40072E-03-1.83331E-04
 -1       184 4.32344E-06-1.17245E-03-1.74728E-04
 -1       185-3.64497E-09-1.03128E-03-3.30464E-04
 -1       186 2.78951E-06-7.59689E-04-3.67148E-04
 -1       187-2.84707E-09-7.04579E-04-3.74235E-04
 -1       188-2.79309E-06-7.59690E-04-3.67146E-04
 -1       189 8.17083E-10-2.97495E-04-2.18664E-04
 -1       211-1.00470E-04-1.51939E-03-8.23726E-05
 -1       212 2.73267E-07-1.34580E-03-1.07180E-09
 -1       213 1.00097E-04-1.51908E-03 8.23593E-05
 -1       214 5.84060E-08-1.11466E-03 3.32283E-08
 -1       215 2.01423E-05-6.28470E-04-1.47315E-04
 -1       216-4.65138E-08-6.41651E-04 9.80813E-09
 -1       217-2.00705E-05-6.28469E-04 1.47309E-04
 -1       218-2.49533E-08-2.43921E-04 6.66991E-09
 -1       250-7.34754E-09-1.51230E-03 8.17645E-05
 -1       251 2.48221E-07-9.57404E-04-6.25888E-09
 -1       252 1.07429E-08-1.22222E-03-5.51421E-09
 -1       253-2.48166E-07-9.57405E-04-9.38834E-09
 -1       254-5.99875E-09-1.51205E-03-8.17658E-05
 -1       255-4.79805E-09-1.09014E-03-1.55490E-08
 -1       256-1.41262E-09-6.20393E-04 1.64281E-04
 -1       257-4.84894E-08-7.24462E-04-2.90129E-09
 -1       258 9.05351E-10-6.42869E-04-3.46329E-09
 -1       259 4.69856E-08-7.24462E-04-5.68741E-09
 -1       260-6.82771E-10-6.20418E-04-1.64287E-04
 -1       261-1.48058E-09-2.75944E-04-1.87518E-09
 -3
    1PSTEP                         4           4           1          
  100CL  104 2.00000E-02          81                     1    4           1
 -4  DISP        4    1
 -5  D1          1    2    1    0
 -5  D2          1    2    2    0
 -5  D3          1    2    3    0
 -5  ALL         1    2    0    0    1ALL
 -1         5 0.00000E+00 0.00000E+00 0.00000E+00
 -1         6 0.00000E+00 0.00000E+00 0.00000E+00
 -1         7 0.00000E+00 0.00000E+00 0.00000E+00
 -1         8 0.00000E+00 0.00000E+00 0.00000E+00
 -1        21 0.00000E+00 0.00000E+00 0.00000E+00
 -1        22 0.00000E+00 0.00000E+00 0.00000E+00
 -1        23 0.00000E+00 0.00000E+00 0.00000E+00
 -1        24 0.00000E+00 0.00000E+00 0.00000E+00
 -1        25 0.00000E+00 0.00000E+00 0.00000E+00
 -1        26 0.00000E+00 0.00000E+00 0.00000E+00
 -1        27 0.00000E+00 0.00000E+00 0.00000E+00
 -1        28 0.00000E+00 0.00000E+00 0.00000E+00
 -1        29 0.00000E+00 0.00000E+00 0.00000E+00
 -1        30 0.00000E+00 0.00000E+00 0.00000E+00
 -1        31 0.00000E+00 0.00000E+00 0.00000E+00
 -1        32 0.00000E+00 0.00000E+00 0.00000E+00
 -1        44-9.43100E-05 9.88910E-04-1.43906E-04
 -1        45-2.17749E-05 7.68141E-04-2.31890E-04
 -1        46 2.56969E-05 5.61981E-04-2.65550E-04
 -1        47-3.31066E-05 2.27556E-04-1.74717E-04
 -1        48 3.31059E-05 2.27556E-04-1.74715E-04
 -1        49-2.56986E-05 5.61982E-04-2.65548E-04
 -1        50 2.17680E-05 7.68141E-04-2.31888E-04
 -1        51 9.42944E-05 9.88924E-04-1.43904E-04
 -1        74 9.36765E-05 9.88913E-04 1.43904E-04
 -1        75 2.15248E-05 7.68246E-04 2.31927E-04
 -1        76-2.55383E-05 5.61909E-04 2.65572E-04
 -1        77 3.31899E-05 2.27535E-04 1.74712E-04
 -1        89-9.36871E-05 9.88906E-04 1.43907E-04
 -1        90-2.15294E-05 7.68245E-04 2.31929E-04
 -1        91 2.55375E-05 5.61910E-04 2.65572E-04
 -1        92-3.31902E-05 2.27536E-04 1.74712E-04
 -1        98 0.00000E+00 0.00000E+00 0.00000E+00
 -1        99 0.00000E+00 0.00000E+00 0.00000E+00
 -1       100 0.00000E+00 0.00000E+00 0.00000E+00
 -1       101 0.00000E+00 0.00000E+00 0.00000E+00
 -1       102 0.00000E+00 0.00000E+00 0.00000E+00
 -1       124 3.34135E-06 9.09670E-04-1.35592E-04
 -1       125-7.73038E-09 1.08772E-03-1.42282E-04
 -1       126-3.35559E-06 9.09665E-04-1.35593E-04
 -1       127-2.51732E-09 8.00639E-04-2.56438E-04
 -1       128-2.15583E-06 5.89721E-04-2.84964E-04
 -1       129-1.59255E-09 5.46698E-04-2.90444E-04
 -1       130 2.15311E-06 5.89720E-04-2.84965E-04
 -1       131-2.03088E-10 2.30839E-04-1.69719E-04
 -1       153 7.78226E-05 1.17940E-03-6.39258E-05
 -1       154-2.83888E-07 1.04407E-03 4.76768E-09
 -1       155-7.75299E-05 1.17923E-03 6.39210E-05
 -1       156-1.03327E-07 8.64994E-04 1.81972E-08
 -1       157-1.56083E-05 4.87781E-04-1.14337E-04
 -1       158 6.79239E-08 4.98152E-04-1.32089E-09
 -1       159 1.55340E-05 4.87786E-04 1.14333E-04
 -1       160 3.09361E-08 1.89394E-04 2.75457E-09
 -1       182 3.25645E-06 9.09755E-04 1.35598E-04
 -1       183-5.43066E-09 1.08739E-03 1.42292E-04
 -1       184-3.26600E-06 9.09754E-04 1.35593E-04
 -1       185-2.42844E-09 8.00408E-04 2.56395E-04
 -1       186-2.13171E-06 5.89700E-04 2.84966E-04
 -1       187-1.08845E-09 5.46858E-04 2.90418E-04
 -1       188 2.12999E-06 5.89700E-04 2.84967E-04
 -1       189 2.11146E-11 2.30904E-04 1.69722E-04
 -1       211 7.75258E-05 1.17923E-03 6.39183E-05
 -1       212 2.80178E-07 1.04407E-03 4.56825E-09
 -1       213-7.78306E-05 1.17941E-03-6.39191E-05
 -1       214 9.76610E-08 8.64997E-04 2.03386E-08
 -1       215-1.55360E-05 4.87787E-04 1.14335E-04
 -1       216-6.97605E-08 4.98152E-04 1.56454E-09
 -1       217 1.56060E-05 4.87781E-04-1.14336E-04
 -1       218-3.16147E-08 1.89394E-04 4.12608E-09
 -1       250-4.51302E-09 1.17365E-03-6.34578E-05
 -1       251 1.50843E-07 7.43328E-04 9.24422E-10
 -1       252-6.02391E-10 9.48291E-04 7.87437E-09
 -1       253-1.53866E-07 7.43329E-04-3.74205E-09
 -1       254-3.33079E-09 1.17363E-03 6.34785E-05
 -1       255-1.69163E-09 8.46004E-04-8.54117E-09
 -1       256-1.30190E-09 4.81520E-04-1.27508E-04
 -1       257-3.78678E-08 5.62250E-04 1.08232E-09
 -1       258-1.17755E-09 4.99064E-04 3.88096E-10
 -1       259 3.59244E-08 5.62251E-04 7.11416E-10
 -1       260-1.08937E-09 4.81567E-04 1.27509E-04
 -1       261-4.59616E-10 2.14225E-04-4.48490E-09
 -3
    1PSTEP                         5           5           1          
  100CL  105 2.50000E-02          81                     1    5           1
 -4  DISP        4    1
 -5  D1          1    2    1    0
 -5  D2          1    2    2    0
 -5  D3          1    2    3    0
 -5  ALL         1    2    0    0    1ALL
 -1         5 0.00000E+00 0.00000E+00 0.00000E+00
 -1         6 0.00000E+00 0.00000E+00 0.00000E+00
 -1         7 0.00000E+00 0.00000E+00 0.00000E+00
 -1         8 0.00000E+00 0.00000E+00 0.00000E+00
 -1        21 0.00000E+00 0.00000E+00 0.00000E+00
 -1        22 0.00000E+00 0.00000E+00 0.00000E+00
 -1        23 0.00000E+00 0.00000E+00 0.00000E+00
 -1        24 0.00000E+00 0.00000E+00 0.00000E+00
 -1        25 0.00000E+00 0.00000E+00 0.00000E+00
 -1        26 0.00000E+00 0.00000E+00 0.00000E+00
 -1        27 0.00000E+00 0.00000E+00 0.00000E+00
 -1        28 0.00000E+00 0.00000E+00 0.00000E+00
 -1        29 0.00000E+00 0.00000E+00 0.00000E+00
 -1        30 0.00000E+00 0.00000E+00 0.00000E+00
 -1        31 0.00000E+00 0.00000E+00 0.00000E+00
 -1        32 0.00000E+00 0.00000E+00 0.00000E+00
 -1        44 7.05620E-05-7.46695E-04 1.08628E-04
 -1        45 1.61650E-05-5.80009E-04 1.75082E-04
 -1        46-1.92215E-05-4.24137E-04 2.00481E-04
 -1        47 2.50781E-05-1.71738E-04 1.31886E-04
 -1        48-2.50778E-05-1.71738E-04 1.31887E-04
 -1        49 1.92242E-05-4.24136E-04 2.00482E-04
 -1        50-1.61650E-05-5.80010E-04 1.75079E-04
 -1        51-7.05611E-05-7.46682E-04 1.08620E-04
 -1        74-7.11669E-05-7.46393E-04-1.08626E-04
 -1        75-1.64544E-05-5.79788E-04-1.75061E-04
 -1        76 1.94164E-05-4.24288E-04-2.00469E-04
 -1        77-2.49857E-05-1.71798E-04-1.31887E-04
 -1        89 7.11681E-05-7.46399E-04-1.08629E-04
 -1        90 1.64554E-05-5.79789E-04-1.75063E-04
 -1        91-1.94143E-05-4.24287E-04-2.00470E-04
 -1        92 2.49861E-05-1.71798E-04-1.31888E-04
 -1        98 0.00000E+00 0.00000E+00 0.00000E+00
 -1        99 0.00000E+00 0.00000E+00 0.00000E+00
 -1       100 0.00000E+00 0.00000E+00 0.00000E+00
 -1       101 0.00000E+00 0.00000E+00 0.00000E+00
 -1       102 0.00000E+00 0.00000E+00 0.00000E+00
 -1       124-2.47630E-06-6.86696E-04 1.02352E-04
 -1       125-1.51714E-09-8.20908E-04 1.07408E-04
 -1       126 2.47606E-06-6.86701E-04 1.02354E-04
 -1       127 1.26541E-09-6.04219E-04 1.93526E-04
 -1       128 1.60450E-06-4.45174E-04 2.15119E-04
 -1       129 1.59982E-10-4.12808E-04 2.19225E-04
 -1       130-1.60326E-06-4.45175E-04 2.15119E-04
 -1       131 3.02098E-10-1.74304E-04 1.28120E-04
 -1       153-5.84590E-05-8.90205E-04 4.82464E-05
 -1       154-1.92070E-07-7.88117E-04 4.40703E-09
 -1       155 5.87135E-05-8.90333E-04-4.82474E-05
 -1       156-3.99185E-08-6.52980E-04 2.87018E-08
 -1       157 1.17133E-05-3.68211E-04 8.63108E-05
 -1       158 2.91369E-08-3.76038E-04 7.03624E-09
 -1       159-1.17716E-05-3.68217E-04-8.63124E-05
 -1       160 1.54632E-08-1.42973E-04 3.44855E-09
 -1       182-2.47167E-06-6.86761E-04-1.02348E-04
 -1       183-1.91858E-10-8.20958E-04-1.07403E-04
 -1       184 2.47282E-06-6.86762E-04-1.02352E-04
 -1       185 8.08109E-10-6.04350E-04-1.93585E-04
 -1       186 1.62407E-06-4.45161E-04-2.15117E-04
 -1       187 2.91001E-10-4.12721E-04-2.19252E-04
 -1       188-1.62298E-06-4.45162E-04-2.15117E-04
 -1       189 2.65577E-10-1.74272E-04-1.28121E-04
 -1       211-5.87106E-05-8.90338E-04-4.82512E-05
 -1       212 1.93652E-07-7.88118E-04 4.13267E-09
 -1       213 5.84613E-05-8.90198E-04 4.82489E-05
 -1       214 4.39031E-08-6.52979E-04 2.81685E-08
 -1       215 1.17722E-05-3.68217E-04-8.63133E-05
 -1       216-2.94319E-08-3.76039E-04 6.27356E-09
 -1       217-1.17124E-05-3.68211E-04 8.63092E-05
 -1       218-1.49478E-08-1.42973E-04 2.79530E-09
 -1       250 1.97483E-09-8.86024E-04 4.79170E-05
 -1       251 1.49630E-07-5.61104E-04-5.80711E-09
 -1       252 5.52275E-09-7.15902E-04 5.07650E-09
 -1       253-1.44129E-07-5.61103E-04-3.51449E-09
 -1       254 2.53439E-09-8.85892E-04-4.79009E-05
 -1       255 7.72084E-10-6.38653E-04-3.42633E-09
 -1       256 6.96392E-10-3.63517E-04 9.62534E-05
 -1       257-2.58867E-08-4.24435E-04 6.01069E-10
 -1       258 1.21017E-09-3.76728E-04-6.27868E-11
 -1       259 2.72040E-08-4.24435E-04 4.54030E-10
 -1       260 7.69223E-10-3.63510E-04-9.62523E-05
 -1       261-3.82484E-11-1.61708E-04-2.47492E-09
 -3
    1PSTEP                         6           6           1          
  100CL  106 3.00000E-02          81                     1    6           1
 -4  DISP        4    1
 -5  D1          1    2    1    0
 -5  D2          1    2    2    0
 -5  D3          1    2    3    0
 -5  ALL         1    2    0    0    1ALL
 -1         5 0.00000E+00 0.00000E+00 0.00000E+00
 -1         6 0.00000E+00 0.00000E+00 0.00000E+00
 -1         7 0.00000E+00 0.00000E+00 0.00000E+00
 -1         8 0.00000E+00 0.00000E+00 0.00000E+00
 -1        21 0.00000E+00 0.00000E+00 0.00000E+00
 -1        22 0.00000E+00 0.00000E+00 0.00000E+00
 -1        23 0.00000E+00 0.00000E+00 0.00000E+00
 -1        24 0.00000E+00 0.00000E+00 0.00000E+00
 -1        25 0.00000E+00 0.00000E+00 0.00000E+00
 -1        26 0.00000E+00 0.00000E+00 0.00000E+00
 -1        27 0.00000E+00 0.00000E+00 0.00000E+00
 -1        28 0.00000E+00 0.00000E+00 0.00000E+00
 -1        29 0.00000E+00 0.00000E+00 0.00000E+00
 -1        30 0.00000E+00 0.00000E+00 0.00000E+00
 -1        31 0.00000E+00 0.00000E+00 0.00000E+00
 -1        32 0.00000E+00 0.00000E+00 0.00000E+00
 -1        44-5.10394E-05 5.41658E-04-7.87657E-05
 -1        45-1.16665E-05 4.20670E-04-1.26964E-04
 -1        46 1.39035E-05 3.07517E-04-1.45387E-04
 -1        47-1.82019E-05 1.24506E-04-9.56352E-05