
 displacements (vx,vy,vz) for set NALL and time  0.5000000E-02

         5  0.000000E+00  0.000000E+00  0.000000E+00
         6  0.000000E+00  0.000000E+00  0.000000E+00
         7  0.000000E+00  0.000000E+00  0.000000E+00
         8  0.000000E+00  0.000000E+00  0.000000E+00
        21  0.000000E+00  0.000000E+00  0.000000E+00
        22  0.000000E+00  0.000000E+00  0.000000E+00
        23  0.000000E+00  0.000000E+00  0.000000E+00
        24  0.000000E+00  0.000000E+00  0.000000E+00
        25  0.000000E+00  0.000000E+00  0.000000E+00
        26  0.000000E+00  0.000000E+00  0.000000E+00
        27  0.000000E+00  0.000000E+00  0.000000E+00
        28  0.000000E+00  0.000000E+00  0.000000E+00
        29  0.000000E+00  0.000000E+00  0.000000E+00
        30  0.000000E+00  0.000000E+00  0.000000E+00
        31  0.000000E+00  0.000000E+00  0.000000E+00
        32  0.000000E+00  0.000000E+00  0.000000E+00
        44 -6.997287E-05 -3.466770E-03  4.477440E-04
        45  5.526054E-05 -2.558238E-03  7.851697E-04
        46 -4.505006E-05 -1.795194E-03  9.498208E-04
        47  1.313225E-04 -6.742807E-04  5.421997E-04
        48 -1.313217E-04 -6.742796E-04  5.421974E-04
        49  4.504540E-05 -1.795194E-03  9.498211E-04
        50 -5.525031E-05 -2.558240E-03  7.851695E-04
        51  6.997695E-05 -3.466782E-03  4.477453E-04
        74  3.525665E-04 -4.417124E-03 -4.939372E-04
        75  2.028434E-04 -2.973727E-03 -7.856211E-04
        76 -1.159662E-04 -1.597118E-03 -9.511963E-04
        77 -2.112766E-04 -5.249417E-04 -5.570740E-04
        89 -3.525537E-04 -4.417113E-03 -4.939339E-04
        90 -2.028364E-04 -2.973724E-03 -7.856144E-04
        91  1.159653E-04 -1.597121E-03 -9.512029E-04
        92  2.112759E-04 -5.249417E-04 -5.570770E-04
        98  0.000000E+00  0.000000E+00  0.000000E+00
        99  0.000000E+00  0.000000E+00  0.000000E+00
       100  0.000000E+00  0.000000E+00  0.000000E+00
       101  0.000000E+00  0.000000E+00  0.000000E+00
       102  0.000000E+00  0.000000E+00  0.000000E+00
       124  1.399557E-04 -2.963633E-03  4.284748E-04
       125  1.446115E-08 -3.579914E-03  4.476315E-04
       126 -1.399414E-04 -2.963633E-03  4.284747E-04
       127 -3.793580E-10 -2.558419E-03  9.020025E-04
       128 -7.123668E-06 -1.952624E-03  9.472314E-04
       129  3.814795E-09 -1.815197E-03  9.397615E-04
       130  7.125743E-06 -1.952623E-03  9.472308E-04
       131 -5.646894E-10 -7.366998E-04  5.562695E-04
       153  7.880736E-05 -3.617884E-03  1.905114E-04
       154 -1.103869E-04 -2.482324E-03 -2.071675E-05
       155 -8.497209E-05 -3.892376E-03 -2.373663E-04
       156 -1.168733E-04 -2.786871E-03 -6.519199E-05
       157 -2.305286E-05 -1.509202E-03  3.925620E-04
       158  8.500429E-05 -1.564189E-03 -2.951741E-05
       159  5.171347E-05 -1.471239E-03 -4.110866E-04
       160  3.890802E-05 -6.574794E-04  4.816935E-06
       182  1.351845E-04 -2.561614E-03 -4.698578E-04
       183  4.454472E-09 -4.336291E-03 -4.760003E-04
       184 -1.351757E-04 -2.561612E-03 -4.698665E-04
       185  5.436603E-10 -2.821852E-03 -8.707054E-04
       186 -4.765161E-05 -2.161572E-03 -9.818479E-04
       187  1.097000E-09 -1.835090E-03 -9.609009E-04
       188  4.765288E-05 -2.161572E-03 -9.818487E-04
       189 -2.685606E-10 -7.224850E-04 -5.645609E-04
       211  8.497659E-05 -3.892362E-03 -2.373774E-04
       212  1.103949E-04 -2.482315E-03 -2.070804E-05
       213 -7.880516E-05 -3.617890E-03  1.905132E-04
       214  1.168732E-04 -2.786872E-03 -6.519340E-05
       215 -5.171090E-05 -1.471241E-03 -4.110871E-04
       216 -8.500081E-05 -1.564187E-03 -2.951955E-05
       217  2.305304E-05 -1.509200E-03  3.925620E-04
       218 -3.890801E-05 -6.574797E-04  4.816896E-06
       250  5.693186E-09 -4.090020E-03  1.741547E-04
       251  3.783013E-05 -2.568736E-03 -1.041651E-05
       252 -6.129987E-09 -3.128854E-03 -1.594798E-05
       253 -3.783163E-05 -2.568742E-03 -1.042633E-05
       254 -4.617801E-10 -4.395190E-03 -2.540150E-04
       255  2.183003E-09 -2.597043E-03 -3.174203E-05
       256  1.124861E-09 -1.605470E-03  3.945420E-04
       257 -4.219231E-05 -1.746988E-03 -1.197440E-05
       258 -1.073633E-09 -1.790146E-03 -1.455432E-05
       259  4.219263E-05 -1.746988E-03 -1.197199E-05
       260 -1.117163E-10 -1.626584E-03 -4.172933E-04
       261  7.379868E-10 -7.160021E-04 -1.827753E-06

 forces (fx,fy,fz) for set NALL and time  0.5000000E-02

         5  2.232523E+00 -4.188140E+00 -1.093849E+00
         6 -2.232493E+00 -4.188165E+00 -1.093829E+00
         7  3.339003E+00  9.552196E-01  1.253842E+00
         8 -3.339042E+00  9.552587E-01  1.253770E+00
        21 -2.713822E+00  5.629377E+00 -1.790252E+01
        22 -6.177402E-05 -1.002596E+01 -6.394521E-01
        23  2.713865E+00  5.629407E+00 -1.790252E+01
        24 -4.693078E+00  1.712298E+01 -1.022336E+01
        25  7.082786E-01 -1.163863E+01 -4.680631E-01
        26  2.364613E+00  1.355616E+01  1.052247E+01
        27 -1.795907E+00 -2.908158E-01  1.759586E+01
        28 -5.136313E-05 -1.724746E+00  1.772985E+00
        29  1.795966E+00 -2.907777E-01  1.759591E+01
        30 -2.364617E+00  1.355610E+01  1.052258E+01
        31 -7.083276E-01 -1.163863E+01 -4.680868E-01
        32  4.693100E+00  1.712302E+01 -1.022333E+01
        44  1.354612E+00  5.204871E+01  1.443184E+00
        45 -7.131446E-06 -6.080380E-01  1.525634E-01
        46  5.450937E-06  1.541473E+00 -4.634098E-01
        47 -1.911802E-06 -1.167011E+00  5.403038E-01
        48  2.089419E-06 -1.167010E+00  5.403044E-01
        49 -4.880391E-06  1.541474E+00 -4.634100E-01
        50  5.313810E-06 -6.080403E-01  1.525630E-01
        51 -1.354649E+00  5.204872E+01  1.443060E+00
        74 -6.368605E+00  1.850897E+01 -1.004300E+00
        75  6.456863E-07 -6.081234E-01 -1.525356E-01
        76 -1.637907E-06  1.541534E+00  4.634018E-01
        77  4.014500E-06 -1.167024E+00 -5.403001E-01
        89  6.368799E+00  1.850876E+01 -1.003782E+00
        90 -3.468035E-06 -6.081198E-01 -1.525355E-01
        91  2.119469E-06  1.541534E+00  4.634019E-01
        92 -3.430513E-06 -1.167026E+00 -5.403000E-01
        98 -3.660815E-05  3.814648E+01 -1.716925E+01
        99 -3.765492E-01 -7.602782E+00  6.579716E-01
       100  6.579022E-05 -2.295761E+01 -3.652875E-01
       101  3.765240E-01 -7.602711E+00  6.579854E-01
       102  4.323601E-05  3.522287E+01  1.646473E+01
       124  1.649041E+01  1.930886E+01 -6.266833E-01
       125  2.222671E-04  1.126125E+02  2.972472E+00
       126 -1.649049E+01  1.930873E+01 -6.269182E-01
       127  4.398411E-07 -1.216077E+00  3.051177E-01
       128  4.557356E-06 -2.615777E+00  9.358650E-01
       129 -1.977982E-07  3.082946E+00 -9.268166E-01
       130 -5.016822E-06 -2.615776E+00  9.358641E-01
       131  5.295606E-07 -2.334021E+00  1.080606E+00
       153  1.209425E+01 -1.326563E+02 -2.316580E+00
       154 -1.600647E+00  9.933234E+01  4.276089E-01
       155  2.281756E+00 -1.091253E+02  1.428595E+00
       156 -1.171603E-05 -1.216153E+00 -2.478953E-05
       157 -7.607192E-06 -2.615785E+00  7.018891E-01
       158  5.803638E-06  3.083006E+00  1.159795E-05
       159 -1.389465E-07 -2.615848E+00 -7.018921E-01
       160 -1.208098E-06 -2.334038E+00 -3.363795E-06
       182  7.849925E+00  6.432626E+01  4.503193E-01
       183  1.086303E-04  5.220579E+01 -1.418063E+00
       184 -7.850136E+00  6.432620E+01  4.496389E-01
       185  1.291350E-06 -6.742573E+00 -3.050653E-01
       186  2.521117E-06 -8.142179E+00 -9.358385E-01
       187 -4.799363E-07 -2.443243E+00  9.268048E-01
       188 -2.878676E-06 -8.142177E+00 -9.358381E-01
       189  4.008576E-07 -7.860373E+00 -1.080595E+00
       211 -2.281809E+00 -1.091248E+02  1.427702E+00
       212  1.600688E+00  9.933244E+01  4.279792E-01
       213 -1.209428E+01 -1.326567E+02 -2.316463E+00
       214  9.290811E-06 -1.216154E+00 -2.298062E-05
       215 -1.520332E-06 -2.615846E+00 -7.018923E-01
       216 -4.644058E-06  3.083005E+00  1.076122E-05
       217  6.236500E-06 -2.615787E+00  7.018893E-01
       218  5.972771E-07 -2.334038E+00 -4.638789E-06
       250  2.597950E-04 -2.953909E+02 -5.867653E+00
       251  6.586344E+00  8.808455E+01  5.573072E-01
       252 -2.035703E-04  2.062043E+02  1.294960E+00
       253 -6.586301E+00  8.808405E+01  5.568932E-01
       254 -2.480622E-04 -2.678131E+02  1.552178E+00
       255  3.291447E-06 -2.432314E+00 -6.072735E-05
       256  8.448435E-07 -5.231571E+00  1.403768E+00
       257  7.240921E-06 -5.231633E+00 -2.667987E-05
       258 -6.528285E-07  6.166016E+00  2.392871E-05
       259 -6.920835E-06 -5.231632E+00 -2.695524E-05
       260  1.693371E-06 -5.231707E+00 -1.403780E+00
       261 -4.982045E-07 -4.668080E+00 -9.360839E-06

 displacements (vx,vy,vz) for set NALL and time  0.1000000E-01

         5  0.000000E+00  0.000000E+00  0.000000E+00
         6  0.000000E+00  0.000000E+00  0.000000E+00
         7  0.000000E+00  0.000000E+00  0.000000E+00
         8  0.000000E+00  0.000000E+00  0.000000E+00
        21  0.000000E+00  0.000000E+00  0.000000E+00
        22  0.000000E+00  0.000000E+00  0.000000E+00
        23  0.000000E+00  0.000000E+00  0.000000E+00
        24  0.000000E+00  0.000000E+00  0.000000E+00
        25  0.000000E+00  0.000000E+00  0.000000E+00
        26  0.000000E+00  0.000000E+00  0.000000E+00
        27  0.000000E+00  0.000000E+00  0.000000E+00
        28  0.000000E+00  0.000000E+00  0.000000E+00
        29  0.000000E+00  0.000000E+00  0.000000E+00
        30  0.000000E+00  0.000000E+00  0.000000E+00
        31  0.000000E+00  0.000000E+00  0.000000E+00
        32  0.000000E+00  0.000000E+00  0.000000E+00
        44 -1.509421E-04  1.609015E-03 -2.339334E-04
        45 -3.514019E-05  1.249441E-03 -3.773157E-04
        46  4.147413E-05  9.138013E-04 -4.323059E-04
        47 -5.402494E-05  3.697788E-04 -2.839982E-04
        48  5.402533E-05  3.697799E-04 -2.840009E-04
        49 -4.147626E-05  9.138025E-04 -4.323084E-04
        50  3.515339E-05  1.249436E-03 -3.773154E-04
        51  1.509624E-04  1.608993E-03 -2.339355E-04
        74  1.498076E-04  1.613985E-03  2.341713E-04
        75  3.392340E-05  1.251567E-03  3.772923E-04
        76 -4.070037E-05  9.127721E-04  4.322982E-04
        77  5.439917E-05  3.690098E-04  2.840781E-04
        89 -1.497903E-04  1.613999E-03  2.341638E-04
        90 -3.391120E-05  1.251570E-03  3.772905E-04
        91  4.069728E-05  9.127697E-04  4.322963E-04
        92 -5.439917E-05  3.690083E-04  2.840755E-04
        98  0.000000E+00  0.000000E+00  0.000000E+00
        99  0.000000E+00  0.000000E+00  0.000000E+00
       100  0.000000E+00  0.000000E+00  0.000000E+00
       101  0.000000E+00  0.000000E+00  0.000000E+00
       102  0.000000E+00  0.000000E+00  0.000000E+00
       124  4.625946E-06  1.479700E-03 -2.204570E-04
       125  1.550745E-08  1.768365E-03 -2.313304E-04
       126 -4.604271E-06  1.479702E-03 -2.204549E-04
       127  2.537470E-09  1.301417E-03 -4.173379E-04
       128 -3.416989E-06  9.591385E-04 -4.635295E-04
       129  3.173812E-09  8.895459E-04 -4.722921E-04
       130  3.420075E-06  9.591397E-04 -4.635288E-04
       131 -4.539845E-10  3.754569E-04 -2.760378E-04
       153  1.246175E-04  1.916677E-03 -1.038669E-04
       154  7.375713E-07  1.693657E-03  1.037775E-07
       155 -1.247267E-04  1.918068E-03  1.041143E-04
       156  6.689684E-07  1.406679E-03  3.308569E-07
       157 -2.494062E-05  7.929004E-04 -1.860451E-04
       158 -4.825706E-07  8.097850E-04  1.548484E-07
       159  2.483740E-05  7.927136E-04  1.861409E-04
       160 -2.187896E-07  3.081794E-04 -2.563216E-08
       182  4.824479E-06  1.477547E-03  2.206674E-04
       183  1.539424E-08  1.772500E-03  2.314744E-04
       184 -4.804449E-06  1.477544E-03  2.206614E-04
       185  1.149757E-09  1.302903E-03  4.171908E-04
       186 -3.238688E-06  9.602213E-04  4.637038E-04
       187  3.255820E-09  8.895394E-04  4.724073E-04
       188  3.241358E-06  9.602221E-04  4.637034E-04
       189 -7.013925E-10  3.753369E-04  2.760742E-04
       211  1.247378E-04  1.918079E-03  1.041077E-04
       212 -7.230677E-07  1.693654E-03  1.022030E-07
       213 -1.246054E-04  1.916660E-03 -1.038750E-04
       214 -6.687496E-07  1.406678E-03  3.249578E-07
       215 -2.483474E-05  7.927110E-04  1.861389E-04
       216  4.891430E-07  8.097846E-04  1.519254E-07
       217  2.494393E-05  7.929020E-04 -1.860466E-04
       218  2.193405E-07  3.081791E-04 -2.532770E-08
       250  4.975608E-09  1.909947E-03 -1.030603E-04
       251 -2.214308E-07  1.209484E-03  5.778683E-08
       252 -7.541121E-09  1.542624E-03  7.987978E-08
       253  2.236695E-07  1.209486E-03  5.099504E-08
       254  5.383797E-09  1.911676E-03  1.034539E-04
       255  3.942425E-09  1.375148E-03  1.665506E-07
       256  7.293595E-10  7.833485E-04 -2.072580E-04
       257  2.291012E-07  9.139973E-04  5.802238E-08
       258 -1.324347E-09  8.123933E-04  7.263452E-08
       259 -2.280712E-07  9.139974E-04  6.129017E-08
       260  6.635052E-10  7.833960E-04  2.073727E-04
       261  1.127984E-09  3.484569E-04  1.253800E-08

 forces (fx,fy,fz) for set NALL and time  0.1000000E-01

         5 -1.664927E+00  3.853027E-01  9.240694E-01
         6  1.664930E+00  3.853113E-01  9.240908E-01
         7 -1.672407E+00  3.572683E-01 -9.249939E-01
         8  1.672414E+00  3.572724E-01 -9.250067E-01
        21  1.034715E+00 -1.649015E+00  8.956757E+00
        22 -6.130151E-05  7.393780E-01  1.410351E+00
        23 -1.034661E+00 -1.648946E+00  8.956751E+00
        24  1.173572E+00 -5.895923E+00  4.716624E+00
        25 -5.377343E-03  2.437903E+00  2.322031E-03
        26 -1.158837E+00 -5.876754E+00 -4.718101E+00
        27  1.030655E+00 -1.616308E+00 -8.955185E+00
        28 -6.363551E-05  6.948616E-01 -1.416095E+00
        29 -1.030594E+00 -1.616224E+00 -8.955168E+00
        30  1.158817E+00 -5.876830E+00 -4.718063E+00
        31  5.357152E-03  2.437895E+00  2.354196E-03
        32 -1.173592E+00 -5.895837E+00  4.716691E+00
        44 -6.128243E+00 -1.511669E+01 -7.524181E-01
        45  6.108195E-06  5.208353E-01 -1.306833E-01
        46 -4.673673E-06 -1.320401E+00  3.969495E-01
        47  1.646711E-06  9.996432E-01 -4.628157E-01
        48 -1.798855E-06  9.996421E-01 -4.628162E-01
        49  4.184953E-06 -1.320402E+00  3.969497E-01
        50 -4.551236E-06  5.208373E-01 -1.306830E-01
        51  6.128296E+00 -1.511660E+01 -7.523840E-01
        74  6.166643E+00 -1.493330E+01  7.501689E-01
        75 -5.478358E-07  5.209086E-01  1.306595E-01
        76  1.404698E-06 -1.320454E+00 -3.969427E-01
        77 -3.448415E-06  9.996540E-01  4.628125E-01
        89 -6.166605E+00 -1.493337E+01  7.501347E-01
        90  2.965416E-06  5.209054E-01  1.306595E-01
        91 -1.817196E-06 -1.320453E+00 -3.969428E-01
        92  2.948181E-06  9.996559E-01  4.628125E-01
        98  1.411704E-05 -1.289829E+01  8.227269E+00
        99  1.065339E-03  3.929671E+00 -3.397663E-03
       100  1.325327E-04  5.309092E+00  2.177986E-03
       101 -1.171062E-03  3.929664E+00 -3.371528E-03
       102  8.993111E-06 -1.288351E+01 -8.223858E+00
       124 -6.449961E+00 -1.696520E+01  4.649289E-01
       125  2.247979E-04 -3.109288E+01 -1.397470E+00
       126  6.449778E+00 -1.696546E+01  4.649092E-01
       127 -3.767608E-07  1.041671E+00 -2.613589E-01
       128 -3.909507E-06  2.240633E+00 -8.016472E-01
       129  1.694307E-07 -2.640803E+00  7.938964E-01
       130  4.303079E-06  2.240632E+00 -8.016464E-01
       131 -4.536133E-07  1.999285E+00 -9.256298E-01
       153  4.554858E+00  5.175707E+01  1.171324E+00
       154  2.153696E-02 -3.298049E+01 -2.243935E-03
       155 -4.649035E+00  5.163043E+01 -1.166580E+00
       156  1.002921E-05  1.041737E+00  2.122524E-05
       157  6.521898E-06  2.240640E+00 -6.012271E-01
       158 -4.970746E-06 -2.640853E+00 -9.928985E-06
       159  1.167085E-07  2.240694E+00  6.012297E-01
       160  1.038889E-06  1.999300E+00  2.881463E-06
       182 -6.409608E+00 -1.721201E+01 -4.639313E-01
       183  2.286748E-04 -3.077032E+01  1.389713E+00
       184  6.409433E+00 -1.721230E+01 -4.639383E-01
       185 -1.106150E-06  1.069527E+00  2.613140E-01
       186 -2.162708E-06  2.268408E+00  8.016245E-01
       187  4.111058E-07 -2.613210E+00 -7.938863E-01
       188  2.468987E-06  2.268406E+00  8.016241E-01
       189 -3.433683E-07  2.027017E+00  9.256210E-01
       211  4.649101E+00  5.163109E+01 -1.166640E+00
       212 -2.180124E-02 -3.298049E+01 -2.314553E-03
       213 -4.554824E+00  5.175640E+01  1.171108E+00
       214 -7.951809E-06  1.041737E+00  1.967575E-05
       215  1.304604E-06  2.240692E+00  6.012298E-01
       216  3.977467E-06 -2.640853E+00 -9.212252E-06
       217 -5.347785E-06  2.240641E+00 -6.012273E-01
       218 -5.156696E-07  1.999300E+00  3.973603E-06
       250 -2.689804E-07  1.048999E+02  2.316469E+00
       251 -2.633506E-02 -4.739715E+01 -2.268525E-03
       252 -5.520990E-04 -6.966049E+01 -6.574178E-03
       253  2.682336E-02 -4.739708E+01 -2.821155E-03
       254  4.953611E-05  1.047622E+02 -2.295391E+00
       255 -2.819402E-06  2.083480E+00  5.200272E-05
       256 -7.236796E-07  4.481281E+00 -1.202446E+00
       257 -6.205242E-06  4.481333E+00  2.284546E-05
       258  5.592025E-07 -5.281711E+00 -2.048561E-05
       259  5.931062E-06  4.481333E+00  2.308134E-05
       260 -1.450515E-06  4.481397E+00  1.202456E+00
       261  4.267543E-07  3.998604E+00  8.017819E-06

 displacements (vx,vy,vz) for set NALL and time  0.1500000E-01

         5  0.000000E+00  0.000000E+00  0.000000E+00
         6  0.000000E+00  0.000000E+00  0.000000E+00
         7  0.000000E+00  0.000000E+00  0.000000E+00
         8  0.000000E+00  0.000000E+00  0.000000E+00
        21  0.000000E+00  0.000000E+00  0.000000E+00
        22  0.000000E+00  0.000000E+00  0.000000E+00
        23  0.000000E+00  0.000000E+00  0.000000E+00
        24  0.000000E+00  0.000000E+00  0.000000E+00
        25  0.000000E+00  0.000000E+00  0.000000E+00
        26  0.000000E+00  0.000000E+00  0.000000E+00
        27  0.000000E+00  0.000000E+00  0.000000E+00
        28  0.000000E+00  0.000000E+00  0.000000E+00
        29  0.000000E+00  0.000000E+00  0.000000E+00
        30  0.000000E+00  0.000000E+00  0.000000E+00
        31  0.000000E+00  0.000000E+00  0.000000E+00
        32  0.000000E+00  0.000000E+00  0.000000E+00
        44  1.211466E-04 -1.273349E-03  1.853960E-04
        45  2.788932E-05 -9.895347E-04  2.987661E-04
        46 -3.297732E-05 -7.240682E-04  3.421375E-04
        47  4.271311E-05 -2.932285E-04  2.250977E-04
        48 -4.271371E-05 -2.932300E-04  2.251003E-04
        49  3.297727E-05 -7.240680E-04  3.421385E-04
        50 -2.790684E-05 -9.895288E-04  2.987703E-04
        51 -1.211843E-04 -1.273315E-03  1.854026E-04
        74 -1.220294E-04 -1.272950E-03 -1.854245E-04
        75 -2.830810E-05 -9.892291E-04 -2.987523E-04
        76  3.325415E-05 -7.242999E-04 -3.421284E-04
        77 -4.258860E-05 -2.933082E-04 -2.251063E-04
        89  1.219928E-04 -1.272975E-03 -1.854128E-04
        90  2.829535E-05 -9.892326E-04 -2.987469E-04
        91 -3.325284E-05 -7.242967E-04 -3.421283E-04
        92  4.258908E-05 -2.933058E-04 -2.251045E-04
        98  0.000000E+00  0.000000E+00  0.000000E+00
        99  0.000000E+00  0.000000E+00  0.000000E+00
       100  0.000000E+00  0.000000E+00  0.000000E+00
       101  0.000000E+00  0.000000E+00  0.000000E+00
       102  0.000000E+00  0.000000E+00  0.000000E+00
       124 -4.446188E-06 -1.172360E-03  1.747092E-04
       125 -2.275076E-08 -1.400606E-03  1.833217E-04
       126  4.410821E-06 -1.172365E-03  1.747101E-04
       127 -4.892883E-09 -1.031066E-03  3.303722E-04
       128  2.776281E-06 -7.596720E-04  3.671428E-04
       129 -4.308060E-09 -7.046703E-04  3.741876E-04
       130 -2.782045E-06 -7.596745E-04  3.671417E-04
       131  3.115290E-10 -2.975281E-04  2.186567E-04
       153 -1.001149E-04 -1.519107E-03  8.235161E-05
       154 -2.863668E-07 -1.345797E-03 -7.678802E-09
       155  1.004523E-04 -1.519371E-03 -8.237988E-05
       156 -6.267168E-08 -1.114665E-03  2.557800E-08
       157  2.006522E-05 -6.284683E-04  1.473052E-04
       158  3.908026E-08 -6.416521E-04  4.441091E-09
       159 -2.014686E-05 -6.284731E-04 -1.473179E-04
       160  2.404857E-08 -2.439218E-04  6.220358E-09
       182 -4.355535E-06 -1.172443E-03 -1.747258E-04
       183 -2.006303E-08 -1.400723E-03 -1.833308E-04
       184  4.323442E-06 -1.172445E-03 -1.747278E-04
       185 -3.644966E-09 -1.031276E-03 -3.304640E-04
       186  2.789510E-06 -7.596887E-04 -3.671479E-04
       187 -2.847068E-09 -7.045791E-04 -3.742348E-04
       188 -2.793093E-06 -7.596895E-04 -3.671463E-04
       189  8.170832E-10 -2.974946E-04 -2.186639E-04
       211 -1.004700E-04 -1.519389E-03 -8.237260E-05
       212  2.732668E-07 -1.345796E-03 -1.071799E-09
       213  1.000968E-04 -1.519083E-03  8.235930E-05
       214  5.840598E-08 -1.114663E-03  3.322830E-08
       215  2.014228E-05 -6.284696E-04 -1.473145E-04
       216 -4.651376E-08 -6.416514E-04  9.808126E-09
       217 -2.007055E-05 -6.284695E-04  1.473086E-04
       218 -2.495332E-08 -2.439212E-04  6.669908E-09
       250 -7.347544E-09 -1.512301E-03  8.176449E-05
       251  2.482209E-07 -9.574043E-04 -6.258875E-09
       252  1.074292E-08 -1.222216E-03 -5.514212E-09
       253 -2.481661E-07 -9.574050E-04 -9.388337E-09
       254 -5.998748E-09 -1.512055E-03 -8.176581E-05
       255 -4.798052E-09 -1.090140E-03 -1.554895E-08
       256 -1.412615E-09 -6.203928E-04  1.642812E-04
       257 -4.848941E-08 -7.244617E-04 -2.901287E-09
       258  9.053513E-10 -6.428688E-04 -3.463293E-09
       259  4.698560E-08 -7.244621E-04 -5.687406E-09
       260 -6.827707E-10 -6.204179E-04 -1.642869E-04
       261 -1.480576E-09 -2.759438E-04 -1.875185E-09

 forces (fx,fy,fz) for set NALL and time  0.1500000E-01

         5  1.322630E+00 -2.912270E-01 -7.350246E-01
         6 -1.322618E+00 -2.912502E-01 -7.350212E-01
         7  1.327784E+00 -2.921083E-01  7.351558E-01
         8 -1.327765E+00 -2.921382E-01  7.351309E-01
        21 -8.169028E-01  1.297654E+00 -7.095616E+00
        22  7.154342E-05 -5.536832E-01 -1.125977E+00
        23  8.168254E-01  1.297576E+00 -7.095615E+00
        24 -9.214298E-01  4.647776E+00 -3.733550E+00
        25  2.789183E-03 -1.903878E+00  5.840930E-04
        26  9.167174E-01  4.651156E+00  3.733193E+00
        27 -8.223267E-01  1.296582E+00  7.095940E+00
        28  6.542036E-05 -5.525369E-01  1.125011E+00
        29  8.222466E-01  1.296479E+00  7.095947E+00
        30 -9.166843E-01  4.651280E+00  3.733166E+00
        31 -2.778569E-03 -1.903870E+00  5.532375E-04
        32  9.214537E-01  4.647641E+00 -3.733595E+00
        44  4.894174E+00  1.188460E+01  5.959401E-01
        45 -4.853755E-06 -4.142314E-01  1.039353E-01
        46  3.723420E-06  1.050144E+00 -3.157028E-01
        47 -1.326221E-06 -7.950387E-01  3.680877E-01
        48  1.447225E-06 -7.950378E-01  3.680881E-01
        49 -3.334730E-06  1.050145E+00 -3.157029E-01
        50  3.615471E-06 -4.142330E-01  1.039350E-01
        51 -4.894311E+00  1.188448E+01  5.960162E-01
        74 -4.929994E+00  1.189242E+01 -5.959134E-01
        75  4.247985E-07 -4.142896E-01 -1.039163E-01
        76 -1.119612E-06  1.050186E+00  3.156973E-01
        77  2.759953E-06 -7.950473E-01 -3.680852E-01
        89  4.929846E+00  1.189256E+01 -5.957324E-01
        90 -2.347554E-06 -4.142871E-01 -1.039163E-01
        91  1.447680E-06  1.050186E+00  3.156974E-01
        92 -2.362105E-06 -7.950488E-01 -3.680852E-01
        98 -1.221129E-05  1.017202E+01 -6.514929E+00
        99  7.116747E-04 -3.116286E+00 -1.577624E-04
       100 -1.373304E-04 -4.157659E+00 -2.689908E-04
       101 -5.903415E-04 -3.116297E+00 -1.135418E-04
       102 -3.609692E-05  1.017119E+01  6.515413E+00
       124  5.091767E+00  1.349541E+01 -3.688817E-01
       125 -3.422729E-04  2.444159E+01  1.105801E+00
       126 -5.091515E+00  1.349570E+01 -3.687276E-01
       127  2.996473E-07 -8.284632E-01  2.078644E-01
       128  3.118377E-06 -1.782026E+00  6.375679E-01
       129 -1.347527E-07  2.100289E+00 -6.314035E-01
       130 -3.431393E-06 -1.782025E+00  6.375673E-01
       131  3.607690E-07 -1.590077E+00  7.361742E-01
       153 -3.687154E+00 -4.087261E+01 -9.275903E-01
       154 -2.062887E-02  2.598943E+01  9.382381E-05
       155  3.722802E+00 -4.089855E+01  9.274060E-01
       156 -7.967268E-06 -8.285152E-01 -1.686818E-05
       157 -5.195866E-06 -1.782031E+00  4.781694E-01
       158  3.952563E-06  2.100329E+00  7.888840E-06
       159 -8.871550E-08 -1.782073E+00 -4.781714E-01
       160 -8.319330E-07 -1.590088E+00 -2.291817E-06
       182  5.130038E+00  1.350122E+01  3.686754E-01
       183 -3.450562E-04  2.443693E+01 -1.105558E+00
       184 -5.129791E+00  1.350154E+01  3.683671E-01
       185  8.797469E-07 -8.300441E-01 -2.078286E-01
       186  1.725477E-06 -1.783542E+00 -6.375498E-01
       187 -3.269624E-07  2.098917E+00  6.313955E-01
       188 -1.969068E-06 -1.783541E+00 -6.375496E-01
       189  2.730886E-07 -1.591559E+00 -7.361671E-01
       211 -3.722886E+00 -4.089943E+01  9.272446E-01
       212  2.103584E-02  2.598942E+01  3.424186E-04
       213  3.687069E+00 -4.087172E+01 -9.276519E-01
       214  6.315065E-06 -8.285157E-01 -1.563583E-05
       215 -1.041686E-06 -1.782072E+00 -4.781715E-01
       216 -3.162586E-06  2.100329E+00  7.318807E-06
       217  4.262068E-06 -1.782032E+00  4.781695E-01
       218  4.158046E-07 -1.590088E+00 -3.160421E-06
       250  1.127070E-05 -8.278052E+01 -1.830497E+00
       251 -4.185874E-03  3.759039E+01 -3.724841E-04
       252  8.337124E-04  5.491846E+01  9.953613E-05
       253  3.534113E-03  3.759040E+01 -4.607460E-04
       254  2.974965E-05 -8.277378E+01  1.831175E+00
       255  2.242336E-06 -1.657036E+00 -4.133738E-05
       256  5.755595E-07 -3.564062E+00  9.563318E-01
       257  4.939073E-06 -3.564104E+00 -1.815816E-05
       258 -4.447476E-07  4.200662E+00  1.627677E-05
       259 -4.721011E-06 -3.564104E+00 -1.834576E-05
       260  1.153628E-06 -3.564154E+00 -9.563400E-01
       261 -3.394072E-07 -3.180180E+00 -6.376010E-06

 displacements (vx,vy,vz) for set NALL and time  0.2000000E-01

         5  0.000000E+00  0.000000E+00  0.000000E+00
         6  0.000000E+00  0.000000E+00  0.000000E+00
         7  0.000000E+00  0.000000E+00  0.000000E+00
         8  0.000000E+00  0.000000E+00  0.000000E+00
        21  0.000000E+00  0.000000E+00  0.000000E+00
        22  0.000000E+00  0.000000E+00  0.000000E+00
        23  0.000000E+00  0.000000E+00  0.000000E+00
        24  0.000000E+00  0.000000E+00  0.000000E+00
        25  0.000000E+00  0.000000E+00  0.000000E+00
        26  0.000000E+00  0.000000E+00  0.000000E+00
        27  0.000000E+00  0.000000E+00  0.000000E+00
        28  0.000000E+00  0.000000E+00  0.000000E+00
        29  0.000000E+00  0.000000E+00  0.000000E+00
        30  0.000000E+00  0.000000E+00  0.000000E+00
        31  0.000000E+00  0.000000E+00  0.000000E+00
        32  0.000000E+00  0.000000E+00  0.000000E+00
        44 -9.430998E-05  9.889104E-04 -1.439055E-04
        45 -2.177490E-05  7.681414E-04 -2.318899E-04
        46  2.569686E-05  5.619807E-04 -2.655500E-04
        47 -3.310657E-05  2.275560E-04 -1.747167E-04
        48  3.310592E-05  2.275556E-04 -1.747150E-04
        49 -2.569861E-05  5.619822E-04 -2.655476E-04
        50  2.176804E-05  7.681408E-04 -2.318877E-04
        51  9.429437E-05  9.889241E-04 -1.439039E-04
        74  9.367654E-05  9.889129E-04  1.439042E-04
        75  2.152481E-05  7.682460E-04  2.319267E-04
        76 -2.553831E-05  5.619090E-04  2.655723E-04
        77  3.318989E-05  2.275347E-04  1.747123E-04
        89 -9.368712E-05  9.889061E-04  1.439073E-04
        90 -2.152944E-05  7.682454E-04  2.319294E-04
        91  2.553752E-05  5.619102E-04  2.655717E-04
        92 -3.319021E-05  2.275356E-04  1.747125E-04
        98  0.000000E+00  0.000000E+00  0.000000E+00
        99  0.000000E+00  0.000000E+00  0.000000E+00
       100  0.000000E+00  0.000000E+00  0.000000E+00
       101  0.000000E+00  0.000000E+00  0.000000E+00
       102  0.000000E+00  0.000000E+00  0.000000E+00
       124  3.341353E-06  9.096702E-04 -1.355920E-04
       125 -7.730385E-09  1.087721E-03 -1.422823E-04
       126 -3.355590E-06  9.096653E-04 -1.355928E-04
       127 -2.517323E-09  8.006390E-04 -2.564385E-04
       128 -2.155827E-06  5.897210E-04 -2.849642E-04
       129 -1.592554E-09  5.466975E-04 -2.904444E-04
       130  2.153115E-06  5.897198E-04 -2.849654E-04
       131 -2.030879E-10  2.308394E-04 -1.697192E-04
       153  7.782263E-05  1.179399E-03 -6.392582E-05
       154 -2.838878E-07  1.044068E-03  4.767684E-09
       155 -7.752989E-05  1.179233E-03  6.392095E-05
       156 -1.033266E-07  8.649945E-04  1.819721E-08
       157 -1.560831E-05  4.877811E-04 -1.143371E-04
       158  6.792392E-08  4.981524E-04 -1.320893E-09
       159  1.553396E-05  4.877860E-04  1.143334E-04
       160  3.093614E-08  1.893939E-04  2.754566E-09
       182  3.256455E-06  9.097551E-04  1.355976E-04
       183 -5.430661E-09  1.087391E-03  1.422925E-04
       184 -3.266003E-06  9.097538E-04  1.355929E-04
       185 -2.428441E-09  8.004078E-04  2.563947E-04
       186 -2.131709E-06  5.897003E-04  2.849658E-04
       187 -1.088453E-09  5.468584E-04  2.904182E-04
       188  2.129987E-06  5.897004E-04  2.849668E-04
       189  2.111456E-11  2.309043E-04  1.697224E-04
       211  7.752580E-05  1.179227E-03  6.391827E-05
       212  2.801777E-07  1.044067E-03  4.568250E-09
       213 -7.783064E-05  1.179407E-03 -6.391910E-05
       214  9.766098E-08  8.649972E-04  2.033864E-08
       215 -1.553599E-05  4.877868E-04  1.143354E-04
       216 -6.976052E-08  4.981517E-04  1.564536E-09
       217  1.560602E-05  4.877810E-04 -1.143356E-04
       218 -3.161469E-08  1.893942E-04  4.126076E-09
       250 -4.513023E-09  1.173654E-03 -6.345781E-05
       251  1.508434E-07  7.433284E-04  9.244219E-10