    1C
    1UUSER                                                              
    1UDATE              11.july.2018                                    
    1UTIME              15:10:57                                        
    1UHOST                                                              
    1UPGM               CalculiX                                        
    1UVERSION           Version 2.13                             
    1UCOMPILETIME       jue jun 14 00:40:39 CEST 2018                    
    1UDIR                                                               
    1UDBN                                                               
    1UMAT    1EL                                                        
    2C                           201                                     1
 -1         1 0.00000E+00 0.00000E+00 0.00000E+00
 -1         2 1.00000E+00 0.00000E+00 0.00000E+00
 -1         3 1.00000E+00 1.00000E+00 0.00000E+00
 -1         4 0.00000E+00 1.00000E+00 0.00000E+00
 -1         9 2.50000E-01 0.00000E+00 0.00000E+00
 -1        10 5.00000E-01 0.00000E+00 0.00000E+00
 -1        11 7.50000E-01 0.00000E+00 0.00000E+00
 -1        12 1.00000E+00 2.50000E-01 0.00000E+00
 -1        13 1.00000E+00 5.00000E-01 0.00000E+00
 -1        14 1.00000E+00 7.50000E-01 0.00000E+00
 -1        15 7.50000E-01 1.00000E+00 0.00000E+00
 -1        16 5.00000E-01 1.00000E+00 0.00000E+00
 -1        17 2.50000E-01 1.00000E+00 0.00000E+00
 -1        18 0.00000E+00 7.50000E-01 0.00000E+00
 -1        19 0.00000E+00 5.00000E-01 0.00000E+00
 -1        20 0.00000E+00 2.50000E-01 0.00000E+00
 -1        33 1.00000E+00 0.00000E+00 5.00000E-01
 -1        34 1.00000E+00 0.00000E+00 1.00000E+00
 -1        35 1.00000E+00 0.00000E+00 1.50000E+00
 -1        36 1.00000E+00 0.00000E+00 2.00000E+00
 -1        37 1.00000E+00 0.00000E+00 2.50000E+00
 -1        38 1.00000E+00 0.00000E+00 3.00000E+00
 -1        39 1.00000E+00 0.00000E+00 3.50000E+00
 -1        40 1.00000E+00 0.00000E+00 4.00000E+00
 -1        41 1.00000E+00 0.00000E+00 4.50000E+00
 -1        42 1.00000E+00 0.00000E+00 5.00000E+00
 -1        43 1.00000E+00 0.00000E+00 5.50000E+00
 -1        44 1.00000E+00 0.00000E+00 6.00000E+00
 -1        51 0.00000E+00 0.00000E+00 6.00000E+00
 -1        52 0.00000E+00 0.00000E+00 5.50000E+00
 -1        53 0.00000E+00 0.00000E+00 5.00000E+00
 -1        54 0.00000E+00 0.00000E+00 4.50000E+00
 -1        55 0.00000E+00 0.00000E+00 4.00000E+00
 -1        56 0.00000E+00 0.00000E+00 3.50000E+00
 -1        57 0.00000E+00 0.00000E+00 3.00000E+00
 -1        58 0.00000E+00 0.00000E+00 2.50000E+00
 -1        59 0.00000E+00 0.00000E+00 2.00000E+00
 -1        60 0.00000E+00 0.00000E+00 1.50000E+00
 -1        61 0.00000E+00 0.00000E+00 1.00000E+00
 -1        62 0.00000E+00 0.00000E+00 5.00000E-01
 -1        63 1.00000E+00 1.00000E+00 5.00000E-01
 -1        64 1.00000E+00 1.00000E+00 1.00000E+00
 -1        65 1.00000E+00 1.00000E+00 1.50000E+00
 -1        66 1.00000E+00 1.00000E+00 2.00000E+00
 -1        67 1.00000E+00 1.00000E+00 2.50000E+00
 -1        68 1.00000E+00 1.00000E+00 3.00000E+00
 -1        69 1.00000E+00 1.00000E+00 3.50000E+00
 -1        70 1.00000E+00 1.00000E+00 4.00000E+00
 -1        71 1.00000E+00 1.00000E+00 4.50000E+00
 -1        72 1.00000E+00 1.00000E+00 5.00000E+00
 -1        73 1.00000E+00 1.00000E+00 5.50000E+00
 -1        74 1.00000E+00 1.00000E+00 6.00000E+00
 -1        78 0.00000E+00 1.00000E+00 5.00000E-01
 -1        79 0.00000E+00 1.00000E+00 1.00000E+00
 -1        80 0.00000E+00 1.00000E+00 1.50000E+00
 -1        81 0.00000E+00 1.00000E+00 2.00000E+00
 -1        82 0.00000E+00 1.00000E+00 2.50000E+00
 -1        83 0.00000E+00 1.00000E+00 3.00000E+00
 -1        84 0.00000E+00 1.00000E+00 3.50000E+00
 -1        85 0.00000E+00 1.00000E+00 4.00000E+00
 -1        86 0.00000E+00 1.00000E+00 4.50000E+00
 -1        87 0.00000E+00 1.00000E+00 5.00000E+00
 -1        88 0.00000E+00 1.00000E+00 5.50000E+00
 -1        89 0.00000E+00 1.00000E+00 6.00000E+00
 -1        93 5.00000E-01 2.50000E-01 0.00000E+00
 -1        94 2.50000E-01 5.00000E-01 0.00000E+00
 -1        95 5.00000E-01 5.00000E-01 0.00000E+00
 -1        96 7.50000E-01 5.00000E-01 0.00000E+00
 -1        97 5.00000E-01 7.50000E-01 0.00000E+00
 -1       103 5.00000E-01 0.00000E+00 5.00000E-01
 -1       104 2.50000E-01 0.00000E+00 1.00000E+00
 -1       105 5.00000E-01 0.00000E+00 1.00000E+00
 -1       106 7.50000E-01 0.00000E+00 1.00000E+00
 -1       107 5.00000E-01 0.00000E+00 1.50000E+00
 -1       108 2.50000E-01 0.00000E+00 2.00000E+00
 -1       109 5.00000E-01 0.00000E+00 2.00000E+00
 -1       110 7.50000E-01 0.00000E+00 2.00000E+00
 -1       111 5.00000E-01 0.00000E+00 2.50000E+00
 -1       112 2.50000E-01 0.00000E+00 3.00000E+00
 -1       113 5.00000E-01 0.00000E+00 3.00000E+00
 -1       114 7.50000E-01 0.00000E+00 3.00000E+00
 -1       115 5.00000E-01 0.00000E+00 3.50000E+00
 -1       116 2.50000E-01 0.00000E+00 4.00000E+00
 -1       117 5.00000E-01 0.00000E+00 4.00000E+00
 -1       118 7.50000E-01 0.00000E+00 4.00000E+00
 -1       119 5.00000E-01 0.00000E+00 4.50000E+00
 -1       120 2.50000E-01 0.00000E+00 5.00000E+00
 -1       121 5.00000E-01 0.00000E+00 5.00000E+00
 -1       122 7.50000E-01 0.00000E+00 5.00000E+00
 -1       123 5.00000E-01 0.00000E+00 5.50000E+00
 -1       124 2.50000E-01 0.00000E+00 6.00000E+00
 -1       125 5.00000E-01 0.00000E+00 6.00000E+00
 -1       126 7.50000E-01 0.00000E+00 6.00000E+00
 -1       132 1.00000E+00 5.00000E-01 5.00000E-01
 -1       133 1.00000E+00 2.50000E-01 1.00000E+00
 -1       134 1.00000E+00 5.00000E-01 1.00000E+00
 -1       135 1.00000E+00 7.50000E-01 1.00000E+00
 -1       136 1.00000E+00 5.00000E-01 1.50000E+00
 -1       137 1.00000E+00 2.50000E-01 2.00000E+00
 -1       138 1.00000E+00 5.00000E-01 2.00000E+00
 -1       139 1.00000E+00 7.50000E-01 2.00000E+00
 -1       140 1.00000E+00 5.00000E-01 2.50000E+00
 -1       141 1.00000E+00 2.50000E-01 3.00000E+00
 -1       142 1.00000E+00 5.00000E-01 3.00000E+00
 -1       143 1.00000E+00 7.50000E-01 3.00000E+00
 -1       144 1.00000E+00 5.00000E-01 3.50000E+00
 -1       145 1.00000E+00 2.50000E-01 4.00000E+00
 -1       146 1.00000E+00 5.00000E-01 4.00000E+00
 -1       147 1.00000E+00 7.50000E-01 4.00000E+00
 -1       148 1.00000E+00 5.00000E-01 4.50000E+00
 -1       149 1.00000E+00 2.50000E-01 5.00000E+00
 -1       150 1.00000E+00 5.00000E-01 5.00000E+00
 -1       151 1.00000E+00 7.50000E-01 5.00000E+00
 -1       152 1.00000E+00 5.00000E-01 5.50000E+00
 -1       153 1.00000E+00 2.50000E-01 6.00000E+00
 -1       154 1.00000E+00 5.00000E-01 6.00000E+00
 -1       155 1.00000E+00 7.50000E-01 6.00000E+00
 -1       161 5.00000E-01 1.00000E+00 5.00000E-01
 -1       162 7.50000E-01 1.00000E+00 1.00000E+00
 -1       163 5.00000E-01 1.00000E+00 1.00000E+00
 -1       164 2.50000E-01 1.00000E+00 1.00000E+00
 -1       165 5.00000E-01 1.00000E+00 1.50000E+00
 -1       166 7.50000E-01 1.00000E+00 2.00000E+00
 -1       167 5.00000E-01 1.00000E+00 2.00000E+00
 -1       168 2.50000E-01 1.00000E+00 2.00000E+00
 -1       169 5.00000E-01 1.00000E+00 2.50000E+00
 -1       170 7.50000E-01 1.00000E+00 3.00000E+00
 -1       171 5.00000E-01 1.00000E+00 3.00000E+00
 -1       172 2.50000E-01 1.00000E+00 3.00000E+00
 -1       173 5.00000E-01 1.00000E+00 3.50000E+00
 -1       174 7.50000E-01 1.00000E+00 4.00000E+00
 -1       175 5.00000E-01 1.00000E+00 4.00000E+00
 -1       176 2.50000E-01 1.00000E+00 4.00000E+00
 -1       177 5.00000E-01 1.00000E+00 4.50000E+00
 -1       178 7.50000E-01 1.00000E+00 5.00000E+00
 -1       179 5.00000E-01 1.00000E+00 5.00000E+00
 -1       180 2.50000E-01 1.00000E+00 5.00000E+00
 -1       181 5.00000E-01 1.00000E+00 5.50000E+00
 -1       182 7.50000E-01 1.00000E+00 6.00000E+00
 -1       183 5.00000E-01 1.00000E+00 6.00000E+00
 -1       184 2.50000E-01 1.00000E+00 6.00000E+00
 -1       190 0.00000E+00 5.00000E-01 5.00000E-01
 -1       191 0.00000E+00 7.50000E-01 1.00000E+00
 -1       192 0.00000E+00 5.00000E-01 1.00000E+00
 -1       193 0.00000E+00 2.50000E-01 1.00000E+00
 -1       194 0.00000E+00 5.00000E-01 1.50000E+00
 -1       195 0.00000E+00 7.50000E-01 2.00000E+00
 -1       196 0.00000E+00 5.00000E-01 2.00000E+00
 -1       197 0.00000E+00 2.50000E-01 2.00000E+00
 -1       198 0.00000E+00 5.00000E-01 2.50000E+00
 -1       199 0.00000E+00 7.50000E-01 3.00000E+00
 -1       200 0.00000E+00 5.00000E-01 3.00000E+00
 -1       201 0.00000E+00 2.50000E-01 3.00000E+00
 -1       202 0.00000E+00 5.00000E-01 3.50000E+00
 -1       203 0.00000E+00 7.50000E-01 4.00000E+00
 -1       204 0.00000E+00 5.00000E-01 4.00000E+00
 -1       205 0.00000E+00 2.50000E-01 4.00000E+00
 -1       206 0.00000E+00 5.00000E-01 4.50000E+00
 -1       207 0.00000E+00 7.50000E-01 5.00000E+00
 -1       208 0.00000E+00 5.00000E-01 5.00000E+00
 -1       209 0.00000E+00 2.50000E-01 5.00000E+00
 -1       210 0.00000E+00 5.00000E-01 5.50000E+00
 -1       211 0.00000E+00 7.50000E-01 6.00000E+00
 -1       212 0.00000E+00 5.00000E-01 6.00000E+00
 -1       213 0.00000E+00 2.50000E-01 6.00000E+00
 -1       219 5.00000E-01 5.00000E-01 5.00000E-01
 -1       220 5.00000E-01 2.50000E-01 1.00000E+00
 -1       221 2.50000E-01 5.00000E-01 1.00000E+00
 -1       222 5.00000E-01 5.00000E-01 1.00000E+00
 -1       223 7.50000E-01 5.00000E-01 1.00000E+00
 -1       224 5.00000E-01 7.50000E-01 1.00000E+00
 -1       225 5.00000E-01 5.00000E-01 1.50000E+00
 -1       226 5.00000E-01 2.50000E-01 2.00000E+00
 -1       227 2.50000E-01 5.00000E-01 2.00000E+00
 -1       228 5.00000E-01 5.00000E-01 2.00000E+00
 -1       229 7.50000E-01 5.00000E-01 2.00000E+00
 -1       230 5.00000E-01 7.50000E-01 2.00000E+00
 -1       231 5.00000E-01 5.00000E-01 2.50000E+00
 -1       232 5.00000E-01 2.50000E-01 3.00000E+00
 -1       233 2.50000E-01 5.00000E-01 3.00000E+00
 -1       234 5.00000E-01 5.00000E-01 3.00000E+00
 -1       235 7.50000E-01 5.00000E-01 3.00000E+00
 -1       236 5.00000E-01 7.50000E-01 3.00000E+00
 -1       237 5.00000E-01 5.00000E-01 3.50000E+00
 -1       238 5.00000E-01 2.50000E-01 4.00000E+00
 -1       239 2.50000E-01 5.00000E-01 4.00000E+00
 -1       240 5.00000E-01 5.00000E-01 4.00000E+00
 -1       241 7.50000E-01 5.00000E-01 4.00000E+00
 -1       242 5.00000E-01 7.50000E-01 4.00000E+00
 -1       243 5.00000E-01 5.00000E-01 4.50000E+00
 -1       244 5.00000E-01 2.50000E-01 5.00000E+00
 -1       245 2.50000E-01 5.00000E-01 5.00000E+00
 -1       246 5.00000E-01 5.00000E-01 5.00000E+00
 -1       247 7.50000E-01 5.00000E-01 5.00000E+00
 -1       248 5.00000E-01 7.50000E-01 5.00000E+00
 -1       249 5.00000E-01 5.00000E-01 5.50000E+00
 -1       250 5.00000E-01 2.50000E-01 6.00000E+00
 -1       251 2.50000E-01 5.00000E-01 6.00000E+00
 -1       252 5.00000E-01 5.00000E-01 6.00000E+00
 -1       253 7.50000E-01 5.00000E-01 6.00000E+00
 -1       254 5.00000E-01 7.50000E-01 6.00000E+00
 -3
    3C                            24                                     1
 -1         1    4    0    1
 -2         1        10        95        19        61       105       222       192         9        93
 -2        94        20        62       103       219       190       104       220       221       193
 -1         2    4    0    1
 -2        10         2        13        95       105        34       134       222        11        12
 -2        96        93       103        33       132       219       106       133       223       220
 -1         3    4    0    1
 -2        19        95        16         4       192       222       163        79        94        97
 -2        17        18       190       219       161        78       221       224       164       191
 -1         4    4    0    1
 -2        95        13         3        16       222       134        64       163        96        14
 -2        15        97       219       132        63       161       223       135       162       224
 -1         5    4    0    1
 -2        61       105       222       192        59       109       228       196       104       220
 -2       221       193        60       107       225       194       108       226       227       197
 -1         6    4    0    1
 -2       105        34       134       222       109        36       138       228       106       133
 -2       223       220       107        35       136       225       110       137       229       226
 -1         7    4    0    1
 -2       192       222       163        79       196       228       167        81       221       224
 -2       164       191       194       225       165        80       227       230       168       195
 -1         8    4    0    1
 -2       222       134        64       163       228       138        66       167       223       135
 -2       162       224       225       136        65       165       229       139       166       230
 -1         9    4    0    1
 -2        59       109       228       196        57       113       234       200       108       226
 -2       227       197        58       111       231       198       112       232       233       201
 -1        10    4    0    1
 -2       109        36       138       228       113        38       142       234       110       137
 -2       229       226       111        37       140       231       114       141       235       232
 -1        11    4    0    1
 -2       196       228       167        81       200       234       171        83       227       230
 -2       168       195       198       231       169        82       233       236       172       199
 -1        12    4    0    1
 -2       228       138        66       167       234       142        68       171       229       139
 -2       166       230       231       140        67       169       235       143       170       236
 -1        13    4    0    1
 -2        57       113       234       200        55       117       240       204       112       232
 -2       233       201        56       115       237       202       116       238       239       205
 -1        14    4    0    1
 -2       113        38       142       234       117        40       146       240       114       141
 -2       235       232       115        39       144       237       118       145       241       238
 -1        15    4    0    1
 -2       200       234       171        83       204       240       175        85       233       236
 -2       172       199       202       237       173        84       239       242       176       203
 -1        16    4    0    1
 -2       234       142        68       171       240       146        70       175       235       143
 -2       170       236       237       144        69       173       241       147       174       242
 -1        17    4    0    1
 -2        55       117       240       204        53       121       246       208       116       238
 -2       239       205        54       119       243       206       120       244       245       209
 -1        18    4    0    1
 -2       117        40       146       240       121        42       150       246       118       145
 -2       241       238       119        41       148       243       122       149       247       244
 -1        19    4    0    1
 -2       204       240       175        85       208       246       179        87       239       242
 -2       176       203       206       243       177        86       245       248       180       207
 -1        20    4    0    1
 -2       240       146        70       175       246       150        72       179       241       147
 -2       174       242       243       148        71       177       247       151       178       248
 -1        21    4    0    1
 -2        53       121       246       208        51       125       252       212       120       244
 -2       245       209        52       123       249       210       124       250       251       213
 -1        22    4    0    1
 -2       121        42       150       246       125        44       154       252       122       149
 -2       247       244       123        43       152       249       126       153       253       250
 -1        23    4    0    1
 -2       208       246       179        87       212       252       183        89       245       248
 -2       180       207       210       249       181        88       251       254       184       211
 -1        24    4    0    1
 -2       246       150        72       179       252       154        74       183       247       151
 -2       178       248       249       152        73       181       253       155       182       254
 -3
    1PSTEP                         1           1           1          
  100CL  101 5.00000E-03         201                     1    1           1
 -4  DISP        4    1
 -5  D1          1    2    1    0
 -5  D2          1    2    2    0
 -5  D3          1    2    3    0
 -5  ALL         1    2    0    0    1ALL
 -1         1 0.00000E+00 0.00000E+00 0.00000E+00
 -1         2 0.00000E+00 0.00000E+00 0.00000E+00
 -1         3 0.00000E+00 0.00000E+00 0.00000E+00
 -1         4 0.00000E+00 0.00000E+00 0.00000E+00
 -1         9 0.00000E+00 0.00000E+00 0.00000E+00
 -1        10 0.00000E+00 0.00000E+00 0.00000E+00
 -1        11 0.00000E+00 0.00000E+00 0.00000E+00
 -1        12 0.00000E+00 0.00000E+00 0.00000E+00
 -1        13 0.00000E+00 0.00000E+00 0.00000E+00
 -1        14 0.00000E+00 0.00000E+00 0.00000E+00
 -1        15 0.00000E+00 0.00000E+00 0.00000E+00
 -1        16 0.00000E+00 0.00000E+00 0.00000E+00
 -1        17 0.00000E+00 0.00000E+00 0.00000E+00
 -1        18 0.00000E+00 0.00000E+00 0.00000E+00
 -1        19 0.00000E+00 0.00000E+00 0.00000E+00
 -1        20 0.00000E+00 0.00000E+00 0.00000E+00
 -1        33 6.37651E-05-1.55504E-04-2.04315E-04
 -1        34 3.13163E-05-4.81530E-04-3.74062E-04
 -1        35 2.57303E-05-9.69928E-04-4.83477E-04
 -1        36 8.13281E-06-1.52722E-03-5.40455E-04
 -1        37-5.20691E-06-2.11001E-03-5.47255E-04
 -1        38-2.09279E-05-2.69276E-03-5.18810E-04
 -1        39-4.25218E-05-3.19245E-03-3.84299E-04
 -1        40-4.33795E-05-3.54111E-03-2.09169E-04
 -1        41-4.46105E-05-3.57763E-03-6.33089E-05
 -1        42-5.95183E-05-3.73907E-03-1.49807E-04
 -1        43 6.33626E-05-3.46507E-03 8.46387E-05
 -1        44-6.49170E-05-3.46198E-03 4.47802E-04
 -1        51 6.49175E-05-3.46198E-03 4.47802E-04
 -1        52-6.33622E-05-3.46507E-03 8.46385E-05
 -1        53 5.95185E-05-3.73907E-03-1.49807E-04
 -1        54 4.46108E-05-3.57763E-03-6.33088E-05
 -1        55 4.33797E-05-3.54111E-03-2.09169E-04
 -1        56 4.25220E-05-3.19245E-03-3.84299E-04
 -1        57 2.09280E-05-2.69276E-03-5.18810E-04
 -1        58 5.20703E-06-2.11001E-03-5.47255E-04
 -1        59-8.13273E-06-1.52722E-03-5.40455E-04
 -1        60-2.57302E-05-9.69928E-04-4.83477E-04
 -1        61-3.13163E-05-4.81530E-04-3.74062E-04
 -1        62-6.37651E-05-1.55504E-04-2.04315E-04
 -1        63-6.26000E-05-1.53777E-04 2.00890E-04
 -1        64-3.11582E-05-4.80981E-04 3.66718E-04
 -1        65-2.33568E-05-9.69477E-04 4.73178E-04
 -1        66-7.84980E-06-1.53366E-03 5.26731E-04
 -1        67 4.86482E-06-2.10020E-03 5.30355E-04
 -1        68 1.42313E-05-2.69330E-03 4.93765E-04
 -1        69 5.93204E-05-3.20353E-03 3.57717E-04
 -1        70 6.77022E-05-3.63235E-03 1.83900E-04
 -1        71-8.68425E-06-3.45362E-03 3.25855E-05
 -1        72-1.10934E-04-3.47478E-03 8.14519E-05
 -1        73 2.15301E-04-3.88992E-03-1.66624E-04
 -1        74 3.54368E-04-4.41985E-03-4.93996E-04
 -1        78 6.26000E-05-1.53777E-04 2.00890E-04
 -1        79 3.11582E-05-4.80981E-04 3.66718E-04
 -1        80 2.33569E-05-9.69477E-04 4.73178E-04
 -1        81 7.84994E-06-1.53366E-03 5.26731E-04
 -1        82-4.86460E-06-2.10020E-03 5.30355E-04
 -1        83-1.42310E-05-2.69330E-03 4.93765E-04
 -1        84-5.93200E-05-3.20353E-03 3.57717E-04
 -1        85-6.77018E-05-3.63235E-03 1.83900E-04
 -1        86 8.68468E-06-3.45362E-03 3.25856E-05
 -1        87 1.10934E-04-3.47478E-03 8.14517E-05
 -1        88-2.15300E-04-3.88992E-03-1.66624E-04
 -1        89-3.54367E-04-4.41985E-03-4.93996E-04
 -1        93 0.00000E+00 0.00000E+00 0.00000E+00
 -1        94 0.00000E+00 0.00000E+00 0.00000E+00
 -1        95 0.00000E+00 0.00000E+00 0.00000E+00
 -1        96 0.00000E+00 0.00000E+00 0.00000E+00
 -1        97 0.00000E+00 0.00000E+00 0.00000E+00
 -1       103 4.61259E-13-1.81777E-04-2.00535E-04
 -1       104-1.56033E-05-5.00901E-04-3.79950E-04
 -1       105 9.91692E-12-5.03389E-04-3.82590E-04
 -1       106 1.56033E-05-5.00901E-04-3.79950E-04
 -1       107 2.15832E-11-9.80075E-04-4.86196E-04
 -1       108-3.35003E-06-1.52930E-03-5.44183E-04
 -1       109 4.25714E-11-1.53979E-03-5.43060E-04
 -1       110 3.35011E-06-1.52930E-03-5.44183E-04
 -1       111 5.93668E-11-2.10132E-03-5.51105E-04
 -1       112 7.64608E-06-2.71655E-03-5.20771E-04
 -1       113 9.22893E-11-2.70965E-03-5.22397E-04
 -1       114-7.64592E-06-2.71655E-03-5.20771E-04
 -1       115 9.74442E-11-3.15465E-03-3.92751E-04
 -1       116 3.22287E-05-3.51707E-03-2.03793E-04
 -1       117 1.45358E-10-3.63832E-03-1.82532E-04
 -1       118-3.22284E-05-3.51707E-03-2.03793E-04
 -1       119 1.17188E-10-3.55170E-03-6.59167E-05
 -1       120-4.13743E-06-3.90831E-03-1.12710E-04
 -1       121 2.63677E-10-3.76355E-03-1.17266E-04
 -1       122 4.13770E-06-3.90831E-03-1.12710E-04
 -1       123 8.73077E-11-3.47859E-03-2.59836E-05
 -1       124 1.35873E-04-2.96530E-03 4.28542E-04
 -1       125 4.21496E-10-3.57880E-03 4.47677E-04
 -1       126-1.35872E-04-2.96530E-03 4.28542E-04
 -1       132 7.12287E-07-1.18584E-04-1.59132E-06
 -1       133 1.61148E-05-4.69237E-04-1.77847E-04
 -1       134 8.74943E-07-4.73888E-04-2.86311E-06
 -1       135-1.53693E-05-4.69328E-04 1.71040E-04
 -1       136-1.51004E-07-9.52489E-04-5.56940E-06
 -1       137 4.83721E-06-1.52512E-03-2.68355E-04
 -1       138 5.58288E-07-1.51720E-03-7.35696E-06
 -1       139-3.73593E-06-1.52688E-03 2.54973E-04
 -1       140 1.65713E-06-2.12435E-03-9.13521E-06
 -1       141-1.05525E-05-2.67801E-03-2.44112E-04
 -1       142 5.28691E-06-2.68405E-03-5.02972E-06
 -1       143 1.15682E-05-2.68385E-03 2.23963E-04
 -1       144-8.69142E-06-3.21702E-03-1.26767E-05
 -1       145-1.98218E-05-3.55844E-03-1.31905E-04
 -1       146-1.22916E-05-3.46092E-03-2.49506E-05
 -1       147 1.69164E-05-3.58403E-03 1.00781E-04
 -1       148 2.65020E-05-3.67931E-03-2.37333E-05
 -1       149-3.48743E-05-3.42078E-03-4.73925E-05
 -1       150 8.12790E-05-3.44363E-03-1.60468E-06
 -1       151 3.35289E-05-3.34642E-03 4.26352E-07
 -1       152-1.23821E-04-3.71744E-03 1.28133E-05
 -1       153 7.67927E-05-3.61436E-03 1.90554E-04
 -1       154-1.09359E-04-2.48327E-03-2.06753E-05
 -1       155-8.52441E-05-3.89713E-03-2.37417E-04
 -1       161 6.49648E-12-1.80585E-04 1.96812E-04
 -1       162-1.53694E-05-5.00254E-04 3.73230E-04
 -1       163 2.57965E-11-5.00954E-04 3.75383E-04
 -1       164 1.53694E-05-5.00254E-04 3.73230E-04
 -1       165 4.70477E-11-9.80098E-04 4.76178E-04
 -1       166-3.89067E-06-1.52667E-03 5.30109E-04
 -1       167 7.96936E-11-1.53569E-03 5.32337E-04
 -1       168 3.89083E-06-1.52667E-03 5.30109E-04
 -1       169 1.03409E-10-2.10232E-03 5.30405E-04
 -1       170 7.26209E-06-2.71641E-03 5.00817E-04
 -1       171 1.49827E-10-2.67852E-03 4.96234E-04
 -1       172-7.26182E-06-2.71641E-03 5.00817E-04
 -1       173 1.60832E-10-3.17475E-03 3.68439E-04
 -1       174 3.26675E-05-3.45880E-03 1.70735E-04
 -1       175 2.31323E-10-3.55707E-03 1.72404E-04
 -1       176-3.26671E-05-3.45880E-03 1.70735E-04
 -1       177 1.94079E-10-3.51049E-03 2.14444E-05
 -1       178-4.94188E-05-4.00538E-03 7.15897E-05
 -1       179 3.61812E-10-3.57950E-03 4.64419E-05
 -1       180 4.94192E-05-4.00538E-03 7.15897E-05
 -1       181 1.95236E-10-3.67169E-03-6.29930E-05
 -1       182 1.39126E-04-2.56056E-03-4.69932E-04
 -1       183 7.74129E-10-4.33818E-03-4.76089E-04
 -1       184-1.39125E-04-2.56056E-03-4.69932E-04
 -1       190-7.12275E-07-1.18584E-04-1.59130E-06
 -1       191 1.53694E-05-4.69328E-04 1.71040E-04
 -1       192-8.74906E-07-4.73888E-04-2.86308E-06
 -1       193-1.61148E-05-4.69237E-04-1.77847E-04
 -1       194 1.51078E-07-9.52489E-04-5.56936E-06
 -1       195 3.73606E-06-1.52688E-03 2.54973E-04
 -1       196-5.58156E-07-1.51720E-03-7.35691E-06
 -1       197-4.83711E-06-1.52512E-03-2.68355E-04
 -1       198-1.65697E-06-2.12435E-03-9.13516E-06
 -1       199-1.15679E-05-2.68385E-03 2.23963E-04
 -1       200-5.28671E-06-2.68405E-03-5.02967E-06
 -1       201 1.05527E-05-2.67801E-03-2.44112E-04
 -1       202 8.69171E-06-3.21702E-03-1.26767E-05
 -1       203-1.69161E-05-3.58402E-03 1.00781E-04
 -1       204 1.22920E-05-3.46092E-03-2.49505E-05
 -1       205 1.98220E-05-3.55844E-03-1.31905E-04
 -1       206-2.65018E-05-3.67931E-03-2.37333E-05
 -1       207-3.35284E-05-3.34642E-03 4.26338E-07
 -1       208-8.12790E-05-3.44363E-03-1.60465E-06
 -1       209 3.48746E-05-3.42078E-03-4.73925E-05
 -1       210 1.23822E-04-3.71744E-03 1.28134E-05
 -1       211 8.52440E-05-3.89713E-03-2.37417E-04
 -1       212 1.09360E-04-2.48327E-03-2.06755E-05
 -1       213-7.67925E-05-3.61436E-03 1.90554E-04
 -1       219 5.24384E-12-1.44320E-04-1.42662E-06
 -1       220 1.36313E-11-4.89024E-04-1.83482E-04
 -1       221-4.18308E-07-4.90547E-04-3.62779E-06
 -1       222 1.70434E-11-4.91981E-04-3.79279E-06
 -1       223 4.18344E-07-4.90547E-04-3.62781E-06
 -1       224 2.15685E-11-4.87679E-04 1.76543E-04
 -1       225 3.69908E-11-9.64600E-04-5.11181E-06
 -1       226 5.03072E-11-1.53271E-03-2.72632E-04
 -1       227-3.37863E-07-1.51855E-03-6.84324E-06
 -1       228 5.62580E-11-1.52054E-03-8.41674E-06
 -1       229 3.37983E-07-1.51855E-03-6.84326E-06
 -1       230 6.86558E-11-1.53096E-03 2.57450E-04
 -1       231 8.74312E-11-2.12271E-03-7.46781E-06
 -1       232 9.63598E-11-2.68570E-03-2.49053E-04
 -1       233-2.30702E-06-2.68149E-03-1.26925E-05
 -1       234 1.05151E-10-2.67885E-03-1.39726E-05
 -1       235 2.30724E-06-2.68149E-03-1.26925E-05
 -1       236 1.26068E-10-2.66898E-03 2.26919E-04
 -1       237 1.37598E-10-3.18927E-03-9.30323E-06
 -1       238 1.51383E-10-3.60867E-03-1.23818E-04
 -1       239 6.31109E-06-3.44995E-03-1.42884E-05
 -1       240 1.39650E-10-3.47478E-03-1.98926E-05
 -1       241-6.31078E-06-3.44995E-03-1.42884E-05
 -1       242 1.89367E-10-3.56951E-03 8.80648E-05
 -1       243 1.98406E-10-3.65155E-03-2.12922E-05
 -1       244 1.67889E-10-3.51560E-03-2.00058E-05
 -1       245-3.55565E-05-3.60669E-03-2.62571E-05
 -1       246 1.34030E-10-3.64923E-03-1.97634E-05
 -1       247 3.55568E-05-3.60669E-03-2.62571E-05
 -1       248 2.43079E-10-3.43921E-03-1.02801E-05
 -1       249 1.87910E-10-3.51881E-03-1.36133E-05
 -1       250 2.44219E-10-4.09204E-03 1.74135E-04
 -1       251 4.07752E-05-2.56900E-03-1.03424E-05
 -1       252-1.29131E-10-3.12813E-03-1.59022E-05
 -1       253-4.07752E-05-2.56900E-03-1.03423E-05
 -1       254 3.03892E-10-4.39165E-03-2.54111E-04
 -3
    1PSTEP                         2           2           1          
  100CL  102 1.00000E-02         201                     1    2           1
 -4  DISP        4    1
 -5  D1          1    2    1    0
 -5  D2          1    2    2    0
 -5  D3          1    2    3    0
 -5  ALL         1    2    0    0    1ALL
 -1         1 0.00000E+00 0.00000E+00 0.00000E+00
 -1         2 0.00000E+00 0.00000E+00 0.00000E+00
 -1         3 0.00000E+00 0.00000E+00 0.00000E+00
 -1         4 0.00000E+00 0.00000E+00 0.00000E+00
 -1         9 0.00000E+00 0.00000E+00 0.00000E+00
 -1        10 0.00000E+00 0.00000E+00 0.00000E+00
 -1        11 0.00000E+00 0.00000E+00 0.00000E+00
 -1        12 0.00000E+00 0.00000E+00 0.00000E+00
 -1        13 0.00000E+00 0.00000E+00 0.00000E+00
 -1        14 0.00000E+00 0.00000E+00 0.00000E+00
 -1        15 0.00000E+00 0.00000E+00 0.00000E+00
 -1        16 0.00000E+00 0.00000E+00 0.00000E+00
 -1        17 0.00000E+00 0.00000E+00 0.00000E+00
 -1        18 0.00000E+00 0.00000E+00 0.00000E+00
 -1        19 0.00000E+00 0.00000E+00 0.00000E+00
 -1        20 0.00000E+00 0.00000E+00 0.00000E+00
 -1        33-3.19982E-05 7.91729E-05 1.03009E-04
 -1        34-1.54895E-05 2.44818E-04 1.87744E-04
 -1        35-1.27500E-05 4.92584E-04 2.42734E-04
 -1        36-4.51041E-06 7.74366E-04 2.70069E-04
 -1        37 4.28542E-06 1.07185E-03 2.71858E-04
 -1        38 1.34610E-05 1.36760E-03 2.50321E-04
 -1        39 2.07883E-05 1.60899E-03 1.85228E-04
 -1        40 1.41129E-05 1.78363E-03 9.24597E-05
 -1        41 3.48392E-05 1.81713E-03 2.07412E-05
 -1        42 4.42072E-05 1.87103E-03 1.11695E-05
 -1        43-3.82048E-05 1.69864E-03-7.83590E-05
 -1        44-1.51048E-04 1.60923E-03-2.33933E-04
 -1        51 1.51048E-04 1.60923E-03-2.33933E-04
 -1        52 3.82044E-05 1.69864E-03-7.83590E-05
 -1        53-4.42076E-05 1.87103E-03 1.11698E-05
 -1        54-3.48396E-05 1.81713E-03 2.07412E-05
 -1        55-1.41133E-05 1.78363E-03 9.24597E-05
 -1        56-2.07886E-05 1.60899E-03 1.85228E-04
 -1        57-1.34612E-05 1.36760E-03 2.50321E-04
 -1        58-4.28564E-06 1.07185E-03 2.71858E-04
 -1        59 4.51026E-06 7.74366E-04 2.70069E-04
 -1        60 1.27499E-05 4.92584E-04 2.42734E-04
 -1        61 1.54894E-05 2.44818E-04 1.87744E-04
 -1        62 3.19981E-05 7.91729E-05 1.03009E-04
 -1        63 3.19923E-05 7.91642E-05-1.02992E-04
 -1        64 1.54886E-05 2.44815E-04-1.87707E-04
 -1        65 1.27380E-05 4.92582E-04-2.42682E-04
 -1        66 4.50887E-06 7.74398E-04-2.70000E-04
 -1        67-4.28422E-06 1.07180E-03-2.71773E-04
 -1        68-1.34283E-05 1.36761E-03-2.50194E-04
 -1        69-2.08717E-05 1.60905E-03-1.85094E-04
 -1        70-1.42335E-05 1.78409E-03-9.23320E-05
 -1        71-3.45771E-05 1.81651E-03-2.05860E-05
 -1        72-4.33648E-05 1.86972E-03-1.08263E-05
 -1        73 3.68283E-05 1.70075E-03 7.87703E-05
 -1        74 1.49627E-04 1.61398E-03 2.34165E-04
 -1        78-3.19923E-05 7.91642E-05-1.02992E-04