
 displacements (vx,vy,vz) for set NALL and time  0.5000000E-02

         5  0.000000E+00  0.000000E+00  0.000000E+00
         6  0.000000E+00  0.000000E+00  0.000000E+00
         7  0.000000E+00  0.000000E+00  0.000000E+00
         8  0.000000E+00  0.000000E+00  0.000000E+00
        21  0.000000E+00  0.000000E+00  0.000000E+00
        22  0.000000E+00  0.000000E+00  0.000000E+00
        23  0.000000E+00  0.000000E+00  0.000000E+00
        24  0.000000E+00  0.000000E+00  0.000000E+00
        25  0.000000E+00  0.000000E+00  0.000000E+00
        26  0.000000E+00  0.000000E+00  0.000000E+00
        27  0.000000E+00  0.000000E+00  0.000000E+00
        28  0.000000E+00  0.000000E+00  0.000000E+00
        29  0.000000E+00  0.000000E+00  0.000000E+00
        30  0.000000E+00  0.000000E+00  0.000000E+00
        31  0.000000E+00  0.000000E+00  0.000000E+00
        32  0.000000E+00  0.000000E+00  0.000000E+00
        44  9.027662E-05 -2.953587E-03  3.368198E-04
        45  1.891274E-05 -2.248627E-03  6.897484E-04
        46 -5.680098E-05 -1.689441E-03  7.718921E-04
        47  9.360629E-05 -6.850431E-04  4.962772E-04
        48 -9.361498E-05 -6.850517E-04  4.963031E-04
        49  5.687257E-05 -1.689369E-03  7.719142E-04
        50 -1.897844E-05 -2.248693E-03  6.895130E-04
        51 -8.976617E-05 -2.953078E-03  3.359742E-04
        74 -2.514552E-05 -3.240180E-03 -3.834524E-04
        75  2.956269E-05 -2.351984E-03 -7.209767E-04
        76  1.581486E-05 -1.675336E-03 -7.893000E-04
        77 -1.243504E-04 -6.302223E-04 -5.078042E-04
        89  2.463584E-05 -3.239672E-03 -3.826070E-04
        90 -2.949659E-05 -2.352049E-03 -7.207415E-04
        91 -1.588634E-05 -1.675264E-03 -7.893220E-04
        92  1.243591E-04 -6.302310E-04 -5.078302E-04
        98  0.000000E+00  0.000000E+00  0.000000E+00
        99  0.000000E+00  0.000000E+00  0.000000E+00
       100  0.000000E+00  0.000000E+00  0.000000E+00
       101  0.000000E+00  0.000000E+00  0.000000E+00
       102  0.000000E+00  0.000000E+00  0.000000E+00
       124 -1.275485E-05 -2.655854E-03  3.101591E-04
       125  7.569690E-08 -2.959318E-03  3.550502E-04
       126  1.304352E-05 -2.656145E-03  3.104612E-04
       127 -1.264486E-08 -2.298220E-03  6.579668E-04
       128  2.427180E-05 -1.737486E-03  8.045326E-04
       129 -1.920315E-09 -1.634444E-03  8.037633E-04
       130 -2.423582E-05 -1.737511E-03  8.045605E-04
       131  2.247480E-09 -6.931143E-04  4.855593E-04
       153 -7.276782E-05 -3.450319E-03  1.429620E-04
       154 -4.531303E-05 -2.806426E-03 -2.436692E-05
       155  7.721861E-05 -3.526500E-03 -1.879509E-04
       156 -2.665786E-05 -2.390517E-03 -4.177793E-05
       157  1.203710E-05 -1.494956E-03  3.151273E-04
       158  3.246625E-05 -1.599062E-03 -1.037003E-05
       159  1.767728E-05 -1.512695E-03 -3.323637E-04
       160  1.528690E-05 -6.157463E-04  7.469785E-06
       182 -3.939808E-05 -2.543942E-03 -3.543784E-04
       183 -7.536015E-08 -3.206908E-03 -3.928262E-04
       184  3.911032E-05 -2.543650E-03 -3.540763E-04
       185  1.278534E-08 -2.431948E-03 -6.593419E-04
       186  2.050106E-05 -1.881670E-03 -8.409047E-04
       187  2.043556E-09 -1.762414E-03 -8.468875E-04
       188 -2.053691E-05 -1.881645E-03 -8.408769E-04
       189 -2.212607E-09 -7.212091E-04 -5.074922E-04
       211 -7.751114E-05 -3.526212E-03 -1.876481E-04
       212  4.531356E-05 -2.806275E-03 -2.436697E-05
       213  7.306058E-05 -3.450031E-03  1.426592E-04
       214  2.665819E-05 -2.390542E-03 -4.177799E-05
       215 -1.770214E-05 -1.512659E-03 -3.323361E-04
       216 -3.246628E-05 -1.599066E-03 -1.037013E-05
       217 -1.201206E-05 -1.494920E-03  3.150995E-04
       218 -1.528691E-05 -6.157419E-04  7.469735E-06
       250  6.811739E-08 -3.094903E-03  9.863754E-05
       251  7.304869E-06 -2.258774E-03  1.195629E-05
       252  9.294095E-11 -2.400590E-03 -7.255574E-06
       253 -7.304663E-06 -2.258910E-03  1.195633E-05
       254 -6.780970E-08 -3.221332E-03 -2.246281E-04
       255  7.110722E-11 -2.487150E-03 -2.290698E-05
       256 -9.584636E-09 -1.446802E-03  3.531746E-04
       257 -1.757632E-05 -1.636840E-03 -1.658441E-05
       258  4.784672E-11 -1.491664E-03 -1.503659E-05
       259  1.757638E-05 -1.636821E-03 -1.658435E-05
       260  9.678207E-09 -1.505581E-03 -3.661939E-04
       261  1.362027E-11 -6.637788E-04  9.844081E-07

 forces (fx,fy,fz) for set NALL and time  0.5000000E-02

         5  1.183915E+00 -3.182453E+00 -1.242059E+00
         6 -1.184286E+00 -3.182082E+00 -1.243119E+00
         7  1.612542E+00 -1.417363E+00  1.283752E+00
         8 -1.612173E+00 -1.417732E+00  1.282692E+00
        21  5.645286E-01  5.802940E+00 -1.668547E+01
        22  3.472395E-04 -3.799377E+00 -2.556943E+00
        23 -5.643354E-01  5.804195E+00 -1.668479E+01
        24 -3.554427E+00  1.340087E+01 -8.424428E+00
        25  3.760360E-01 -8.612654E+00 -5.943797E-02
        26  2.835330E+00  1.239888E+01  8.662782E+00
        27  8.411890E-01  3.980813E+00  1.654010E+01
        28 -3.473907E-04 -1.001729E+00  2.759649E+00
        29 -8.413819E-01  3.979553E+00  1.654078E+01
        30 -2.834068E+00  1.239907E+01  8.663455E+00
        31 -3.760395E-01 -8.611964E+00 -5.943718E-02
        32  3.553169E+00  1.340107E+01 -8.425100E+00
        44 -1.472177E+00  3.988967E+01  1.742841E+00
        45 -7.130289E-06 -6.080380E-01  1.525634E-01
        46  5.450123E-06  1.541473E+00 -4.634098E-01
        47 -1.911314E-06 -1.167011E+00  5.403038E-01
        48  2.088931E-06 -1.167010E+00  5.403044E-01
        49 -4.879577E-06  1.541474E+00 -4.634100E-01
        50  5.312653E-06 -6.080403E-01  1.525630E-01
        51  1.474353E+00  3.989185E+01  1.739265E+00
        74 -2.725517E-01  3.031110E+01 -1.298369E+00
        75  6.455955E-07 -6.081235E-01 -1.525356E-01
        76 -1.637344E-06  1.541534E+00  4.634018E-01
        77  4.013720E-06 -1.167024E+00 -5.403001E-01
        89  2.703920E-01  3.031325E+01 -1.294791E+00
        90 -3.467944E-06 -6.081198E-01 -1.525355E-01
        91  2.118906E-06  1.541534E+00  4.634019E-01
        92 -3.429733E-06 -1.167026E+00 -5.403000E-01
        98  4.413102E-04  2.387126E+01 -1.464111E+01
        99  8.032834E-02 -3.325387E+00  1.084796E-01
       100 -2.242914E-06 -1.574032E+01 -7.144101E-02
       101 -8.032492E-02 -3.326266E+00  1.084795E-01
       102 -4.419064E-04  2.368685E+01  1.489078E+01
       124 -3.364939E+00  1.552355E+01 -1.785444E+00
       125  9.315493E-04  6.987169E+01  4.376541E+00
       126  3.364274E+00  1.552131E+01 -1.784536E+00
       127  4.398412E-07 -1.216077E+00  3.051177E-01
       128  4.556276E-06 -2.615777E+00  9.358650E-01
       129 -1.977984E-07  3.082946E+00 -9.268166E-01
       130 -5.015742E-06 -2.615776E+00  9.358641E-01
       131  5.295607E-07 -2.334021E+00  1.080606E+00
       153  1.129116E+00 -1.067665E+02 -3.012638E+00
       154 -1.570005E+00  7.952823E+01  2.261039E-01
       155  4.059146E+00 -1.009686E+02  1.719224E+00
       156 -1.171818E-05 -1.216153E+00 -2.479019E-05
       157 -7.606306E-06 -2.615785E+00  7.018891E-01
       158  5.804324E-06  3.083006E+00  1.159807E-05
       159 -1.399678E-07 -2.615848E+00 -7.018921E-01
       160 -1.207437E-06 -2.334038E+00 -3.363757E-06
       182 -6.218949E+00  2.924428E+01  1.998342E+00
       183 -9.275239E-04  5.397500E+01 -2.427439E+00
       184  6.219616E+00  2.924656E+01  1.999249E+00
       185  1.291350E-06 -6.742573E+00 -3.050653E-01
       186  2.520180E-06 -8.142179E+00 -9.358385E-01
       187 -4.799362E-07 -2.443243E+00  9.268048E-01
       188 -2.877739E-06 -8.142177E+00 -9.358382E-01
       189  4.008575E-07 -7.860373E+00 -1.080595E+00
       211 -4.061431E+00 -1.009693E+02  1.720148E+00
       212  1.570034E+00  7.953009E+01  2.261044E-01
       213 -1.126868E+00 -1.067672E+02 -3.013564E+00
       214  9.292967E-06 -1.216154E+00 -2.298127E-05
       215 -1.519311E-06 -2.615846E+00 -7.018923E-01
       216 -4.644743E-06  3.083006E+00  1.076134E-05
       217  6.235615E-06 -2.615787E+00  7.018893E-01
       218  5.966156E-07 -2.334038E+00 -4.638751E-06
       250  3.968752E-04 -1.826795E+02 -9.778510E+00
       251  8.282592E-01  6.095222E+01  2.603167E+00
       252  1.698466E-05  1.513080E+02  1.797054E+00
       253 -8.282894E-01  6.095141E+01  2.603168E+00
       254 -3.977633E-04 -1.797930E+02  8.964733E-01
       255  3.291447E-06 -2.432314E+00 -6.072780E-05
       256  8.448443E-07 -5.231571E+00  1.403768E+00
       257  7.241222E-06 -5.231633E+00 -2.668018E-05
       258 -6.528287E-07  6.166016E+00  2.392887E-05
       259 -6.921136E-06 -5.231632E+00 -2.695556E-05
       260  1.693371E-06 -5.231707E+00 -1.403780E+00
       261 -4.982045E-07 -4.668080E+00 -9.360869E-06

 displacements (vx,vy,vz) for set NALL and time  0.1000000E-01

         5  0.000000E+00  0.000000E+00  0.000000E+00
         6  0.000000E+00  0.000000E+00  0.000000E+00
         7  0.000000E+00  0.000000E+00  0.000000E+00
         8  0.000000E+00  0.000000E+00  0.000000E+00
        21  0.000000E+00  0.000000E+00  0.000000E+00
        22  0.000000E+00  0.000000E+00  0.000000E+00
        23  0.000000E+00  0.000000E+00  0.000000E+00
        24  0.000000E+00  0.000000E+00  0.000000E+00
        25  0.000000E+00  0.000000E+00  0.000000E+00
        26  0.000000E+00  0.000000E+00  0.000000E+00
        27  0.000000E+00  0.000000E+00  0.000000E+00
        28  0.000000E+00  0.000000E+00  0.000000E+00
        29  0.000000E+00  0.000000E+00  0.000000E+00
        30  0.000000E+00  0.000000E+00  0.000000E+00
        31  0.000000E+00  0.000000E+00  0.000000E+00
        32  0.000000E+00  0.000000E+00  0.000000E+00
        44 -5.778105E-05  1.659232E-03 -2.380921E-04
        45 -1.853060E-05  1.237746E-03 -4.107678E-04
        46  3.000970E-05  9.237051E-04 -4.400290E-04
        47 -5.328451E-05  3.739264E-04 -2.814429E-04
        48  5.330522E-05  3.740209E-04 -2.815241E-04
        49 -2.943227E-05  9.237082E-04 -4.402516E-04
        50  1.866177E-05  1.238042E-03 -4.111663E-04
        51  6.046328E-05  1.658401E-03 -2.389653E-04
        74  4.034823E-05  1.763801E-03  2.373618E-04
        75 -6.547187E-06  1.282000E-03  4.070080E-04
        76 -1.495931E-05  8.977372E-04  4.363061E-04
        77  6.004014E-05  3.588717E-04  2.817266E-04
        89 -4.135659E-05  1.761666E-03  2.367397E-04
        90  8.044316E-06  1.282456E-03  4.064696E-04
        91  1.486121E-05  8.975427E-04  4.359505E-04
        92 -5.987623E-05  3.588444E-04  2.814683E-04
        98  0.000000E+00  0.000000E+00  0.000000E+00
        99  0.000000E+00  0.000000E+00  0.000000E+00
       100  0.000000E+00  0.000000E+00  0.000000E+00
       101  0.000000E+00  0.000000E+00  0.000000E+00
       102  0.000000E+00  0.000000E+00  0.000000E+00
       124  9.460667E-06  1.495055E-03 -2.264925E-04
       125  1.861740E-07  1.672890E-03 -2.334247E-04
       126 -8.005077E-06  1.495776E-03 -2.270913E-04
       127  6.016297E-07  1.275714E-03 -3.904103E-04
       128 -1.126251E-05  9.570285E-04 -4.604261E-04
       129 -1.439263E-07  8.983026E-04 -4.662152E-04
       130  1.141001E-05  9.569745E-04 -4.600967E-04
       131  2.876881E-08  3.788801E-04 -2.769666E-04
       153  5.597732E-05  1.947310E-03 -1.073918E-04
       154  2.391835E-05  1.617755E-03 -6.454823E-07
       155 -5.739643E-05  1.965791E-03  1.059963E-04
       156  1.756563E-05  1.318289E-03  6.840351E-06
       157 -7.397059E-06  8.150504E-04 -1.864690E-04
       158 -1.093755E-05  8.680114E-04  2.355534E-06
       159  8.629744E-06  8.108692E-04  1.861235E-04
       160 -4.812475E-06  3.289870E-04 -7.179016E-07
       182  2.788174E-05  1.444864E-03  2.270023E-04
       183  1.135866E-06  1.748431E-03  2.381459E-04
       184 -2.716729E-05  1.443455E-03  2.251710E-04
       185 -1.823948E-08  1.302438E-03  3.786089E-04
       186 -1.068770E-05  9.689178E-04  4.610420E-04
       187  5.393266E-07  8.793991E-04  4.650983E-04
       188  1.115883E-05  9.688730E-04  4.611957E-04
       189  1.054526E-08  3.713283E-04  2.768742E-04
       211  5.764630E-05  1.964749E-03  1.060387E-04
       212 -2.206169E-05  1.617562E-03 -1.634813E-06
       213 -5.349320E-05  1.946869E-03 -1.086779E-04
       214 -1.702072E-05  1.318035E-03  6.300781E-06
       215 -8.404316E-06  8.109510E-04  1.856062E-04
       216  1.142635E-05  8.684026E-04  2.089677E-06
       217  7.895370E-06  8.152367E-04 -1.866254E-04
       218  4.905223E-06  3.290095E-04 -7.872509E-07
       250  2.668188E-07  1.746403E-03 -9.791921E-05
       251 -6.054410E-06  1.266140E-03 -4.440123E-06
       252  5.221576E-07  1.359067E-03  8.949459E-08
       253  7.468030E-06  1.266116E-03 -4.333863E-06
       254  9.544021E-07  1.775605E-03  1.091019E-04
       255  4.245272E-07  1.371357E-03  1.821600E-06
       256 -5.855367E-09  7.881754E-04 -2.069008E-04
       257  4.528451E-06  8.919509E-04  4.772193E-07
       258  8.651051E-08  8.003918E-04 -1.270870E-08
       259 -4.202847E-06  8.917838E-04  6.961138E-07
       260  2.878190E-07  7.806784E-04  2.052298E-04
       261  5.348669E-08  3.545612E-04  6.168299E-07

 forces (fx,fy,fz) for set NALL and time  0.1000000E-01

         5 -7.552264E-01  1.317590E+00  7.343770E-01
         6  7.531657E-01  1.317648E+00  7.320101E-01
         7 -8.448783E-01  6.617119E-01 -7.626044E-01
         8  8.474659E-01  6.608622E-01 -7.646339E-01
        21 -2.244894E-01 -2.660282E+00  9.150991E+00
        22  2.793936E-03  1.284896E+00  1.409781E+00
        23  2.240332E-01 -2.660631E+00  9.154990E+00
        24  1.855063E+00 -6.818810E+00  4.674774E+00
        25 -1.020972E-01  3.708150E+00  3.553910E-02
        26 -1.473532E+00 -6.238574E+00 -4.715130E+00
        27 -4.977625E-01 -1.956781E+00 -9.077943E+00
        28 -4.727568E-03  2.668244E-01 -1.525586E+00
        29  5.010381E-01 -1.952494E+00 -9.067816E+00
        30  1.477350E+00 -6.236576E+00 -4.717915E+00
        31  9.913279E-02  3.703905E+00  3.928864E-02
        32 -1.863152E+00 -6.818803E+00  4.682053E+00
        44  1.721753E-01 -2.140502E+01 -6.903255E-01
        45  6.104587E-06  5.208354E-01 -1.306833E-01
        46 -4.670758E-06 -1.320401E+00  3.969495E-01
        47  1.644415E-06  9.996432E-01 -4.628157E-01
        48 -1.796563E-06  9.996421E-01 -4.628162E-01
        49  4.182065E-06 -1.320402E+00  3.969497E-01
        50 -4.547660E-06  5.208374E-01 -1.306830E-01
        51 -1.652082E-01 -2.140471E+01 -7.007176E-01
        74  3.783576E-01 -1.687298E+01  7.217464E-01
        75 -5.483154E-07  5.209086E-01  1.306595E-01
        76  1.402776E-06 -1.320454E+00 -3.969427E-01
        77 -3.445023E-06  9.996540E-01  4.628125E-01
        89 -3.853578E-01 -1.687471E+01  7.293536E-01
        90  2.965855E-06  5.209055E-01  1.306595E-01
        91 -1.815243E-06 -1.320453E+00 -3.969428E-01
        92  2.944784E-06  9.996559E-01  4.628125E-01
        98  5.609199E-03 -1.225903E+01  8.341663E+00
        99  1.111529E-01  2.288644E+00  8.386227E-03
       100  2.147474E-03  6.799088E+00  6.634001E-02
       101 -1.095912E-01  2.287369E+00  6.591480E-03
       102 -4.570735E-03 -1.159739E+01 -8.391291E+00
       124  1.387340E+00 -9.524996E+00  3.081614E-01
       125 -2.705459E-03 -3.762366E+01 -1.339466E+00
       126 -1.395737E+00 -9.519620E+00  2.790722E-01
       127 -3.767980E-07  1.041671E+00 -2.613589E-01
       128 -3.905310E-06  2.240633E+00 -8.016472E-01
       129  1.694599E-07 -2.640803E+00  7.938964E-01
       130  4.298848E-06  2.240632E+00 -8.016464E-01
       131 -4.536172E-07  1.999285E+00 -9.256298E-01
       153  1.382514E-01  5.872108E+01  1.119325E+00
       154  5.481543E-01 -4.256392E+01  5.474321E-02
       155 -2.527903E+00  5.484361E+01 -1.100344E+00
       156  1.003717E-05  1.041737E+00  2.122765E-05
       157  6.518470E-06  2.240640E+00 -6.012271E-01
       158 -4.973258E-06 -2.640854E+00 -9.929435E-06
       159  1.206208E-07  2.240694E+00  6.012297E-01
       160  1.036429E-06  1.999300E+00  2.881331E-06
       182  3.325159E+00 -1.486282E+01 -4.394146E-01
       183  6.910276E-03 -2.997803E+01  1.393419E+00
       184 -3.323548E+00 -1.488056E+01 -4.789555E-01
       185 -1.106184E-06  1.069527E+00  2.613140E-01
       186 -2.159046E-06  2.268408E+00  8.016245E-01
       187  4.111351E-07 -2.613210E+00 -7.938863E-01
       188  2.465287E-06  2.268406E+00  8.016242E-01
       189 -3.433730E-07  2.027017E+00  9.256210E-01
       211  2.518639E+00  5.484495E+01 -1.089016E+00
       212 -5.397593E-01 -4.256013E+01  4.323805E-02
       213 -1.257666E-01  5.872287E+01  1.112694E+00
       214 -7.959843E-06  1.041737E+00  1.967818E-05
       215  1.300652E-06  2.240692E+00  6.012299E-01
       216  3.980038E-06 -2.640853E+00 -9.212726E-06
       217 -5.344391E-06  2.240641E+00 -6.012273E-01
       218 -5.132192E-07  1.999300E+00  3.973481E-06
       250 -1.294120E-02  1.011768E+02  2.891149E+00
       251 -8.455657E-01 -3.457954E+01 -4.096756E-01
       252  9.274366E-04 -8.175326E+01  5.133307E-02
       253  8.400153E-01 -3.457646E+01 -4.228387E-01
       254  9.637421E-03  9.638316E+01 -2.047348E+00
       255 -2.819475E-06  2.083480E+00  5.200439E-05
       256 -7.237153E-07  4.481281E+00 -1.202446E+00
       257 -6.206419E-06  4.481334E+00  2.284665E-05
       258  5.592619E-07 -5.281712E+00 -2.048625E-05
       259  5.932166E-06  4.481333E+00  2.308250E-05
       260 -1.450552E-06  4.481397E+00  1.202456E+00
       261  4.267446E-07  3.998604E+00  8.017934E-06

 displacements (vx,vy,vz) for set NALL and time  0.1500000E-01

         5  0.000000E+00  0.000000E+00  0.000000E+00
         6  0.000000E+00  0.000000E+00  0.000000E+00
         7  0.000000E+00  0.000000E+00  0.000000E+00
         8  0.000000E+00  0.000000E+00  0.000000E+00
        21  0.000000E+00  0.000000E+00  0.000000E+00
        22  0.000000E+00  0.000000E+00  0.000000E+00
        23  0.000000E+00  0.000000E+00  0.000000E+00
        24  0.000000E+00  0.000000E+00  0.000000E+00
        25  0.000000E+00  0.000000E+00  0.000000E+00
        26  0.000000E+00  0.000000E+00  0.000000E+00
        27  0.000000E+00  0.000000E+00  0.000000E+00
        28  0.000000E+00  0.000000E+00  0.000000E+00
        29  0.000000E+00  0.000000E+00  0.000000E+00
        30  0.000000E+00  0.000000E+00  0.000000E+00
        31  0.000000E+00  0.000000E+00  0.000000E+00
        32  0.000000E+00  0.000000E+00  0.000000E+00
        44  3.453853E-05 -1.229456E-03  1.636711E-04
        45  7.608648E-06 -9.354681E-04  2.944875E-04
        46 -2.143582E-05 -7.003954E-04  3.240142E-04
        47  4.099900E-05 -2.887811E-04  2.115273E-04
        48 -4.072921E-05 -2.887615E-04  2.114842E-04
        49  2.208354E-05 -6.997982E-04  3.234898E-04
        50 -5.661818E-06 -9.363471E-04  2.938274E-04
        51 -3.428307E-05 -1.226555E-03  1.631345E-04
        74 -2.211015E-05 -1.318289E-03 -1.652144E-04
        75  1.187848E-05 -9.684502E-04 -2.924701E-04
        76  1.331088E-05 -6.823080E-04 -3.191721E-04
        77 -4.649157E-05 -2.755259E-04 -2.107554E-04
        89  2.345633E-05 -1.315917E-03 -1.639673E-04
        90 -9.419552E-06 -9.701076E-04 -2.936431E-04
        91 -1.346254E-05 -6.812769E-04 -3.203510E-04
        92  4.684954E-05 -2.758349E-04 -2.116684E-04
        98  0.000000E+00  0.000000E+00  0.000000E+00
        99  0.000000E+00  0.000000E+00  0.000000E+00
       100  0.000000E+00  0.000000E+00  0.000000E+00
       101  0.000000E+00  0.000000E+00  0.000000E+00
       102  0.000000E+00  0.000000E+00  0.000000E+00
       124  2.355291E-06 -1.107352E-03  1.489181E-04
       125  4.957682E-07 -1.245415E-03  1.595156E-04
       126 -1.428188E-06 -1.108509E-03  1.493882E-04
       127  9.710615E-07 -9.571942E-04  2.848644E-04
       128  7.433752E-06 -7.260426E-04  3.388316E-04
       129  3.450363E-07 -6.838841E-04  3.409549E-04
       130 -6.832361E-06 -7.264209E-04  3.389821E-04
       131  9.467718E-08 -2.935579E-04  2.078663E-04
       153 -3.114567E-05 -1.428409E-03  7.360422E-05
       154 -2.436311E-05 -1.174873E-03  4.882228E-06
       155  3.687546E-05 -1.439526E-03 -6.756764E-05
       156 -1.467805E-05 -9.913047E-04 -8.505624E-06
       157  2.991771E-06 -6.230360E-04  1.374918E-04
       158  1.078191E-05 -6.634849E-04 -7.359339E-07
       159 -2.451884E-06 -6.225179E-04 -1.355789E-04
       160  4.635405E-06 -2.575315E-04  1.972593E-06
       182 -2.061861E-05 -1.064552E-03 -1.503301E-04
       183  2.832517E-06 -1.297298E-03 -1.715439E-04
       184  2.420071E-05 -1.063172E-03 -1.514486E-04
       185  5.145452E-07 -9.806130E-04 -2.670589E-04
       186  1.065469E-05 -7.372785E-04 -3.414145E-04
       187  5.354420E-07 -6.674927E-04 -3.430355E-04
       188 -1.022713E-05 -7.368348E-04 -3.416554E-04
       189 -6.907792E-09 -2.873678E-04 -2.107240E-04
       211 -3.192352E-05 -1.440046E-03 -7.172317E-05
       212  3.144008E-05 -1.177933E-03  2.046814E-07
       213  3.446131E-05 -1.428417E-03  7.369102E-05
       214  1.554975E-05 -9.900134E-04 -1.017358E-05
       215  3.107991E-06 -6.225914E-04 -1.359549E-04
       216 -9.077507E-06 -6.647026E-04 -1.303157E-06
       217 -1.765693E-06 -6.233545E-04  1.363991E-04
       218 -4.508082E-06 -2.574340E-04  1.816261E-06
       250  8.180470E-07 -1.299127E-03  5.686406E-05
       251  1.462682E-05 -9.487287E-04  1.408273E-05
       252  1.231467E-06 -1.012681E-03  2.996007E-06
       253 -1.017438E-05 -9.468375E-04  1.447890E-05
       254  2.028981E-06 -1.312840E-03 -8.991443E-05
       255  1.213114E-06 -1.023494E-03 -7.529258E-07
       256  2.380230E-07 -6.070316E-04  1.531123E-04
       257 -4.020087E-06 -6.799352E-04 -2.663363E-06
       258  8.606366E-08 -6.194481E-04 -4.151542E-07
       259  4.980241E-06 -6.794037E-04 -1.934372E-06
       260  3.288907E-07 -6.015870E-04 -1.479784E-04
       261  1.237495E-07 -2.756110E-04 -8.980034E-07

 forces (fx,fy,fz) for set NALL and time  0.1500000E-01

         5  6.100092E-01 -9.309541E-01 -6.354162E-01
         6 -6.120912E-01 -9.285244E-01 -6.451690E-01
         7  6.266076E-01 -3.131614E-01  6.750329E-01
         8 -6.168589E-01 -3.261393E-01  6.629075E-01
        21  1.804414E-02  2.161997E+00 -7.010814E+00
        22 -1.964452E-03 -9.056397E-01 -1.234252E+00
        23 -1.476236E-02  2.178745E+00 -7.019138E+00
        24 -1.469146E+00  4.999906E+00 -3.446011E+00
        25  2.607102E-02 -2.640307E+00 -1.459564E-02
        26  1.096897E+00  4.374299E+00  3.525008E+00
        27  4.335709E-01  1.593174E+00  6.885766E+00
        28 -4.462275E-03  6.064209E-02  1.269474E+00
        29 -4.290053E-01  1.583655E+00  6.892757E+00
        30 -1.098557E+00  4.377530E+00  3.544913E+00
        31 -4.130566E-02 -2.626559E+00 -2.959606E-03
        32  1.457034E+00  4.989906E+00 -3.447903E+00
        44 -6.448906E-02  1.582689E+01  7.035123E-01
        45 -4.849369E-06 -4.142315E-01  1.039353E-01
        46  3.718573E-06  1.050144E+00 -3.157028E-01
        47 -1.320710E-06 -7.950387E-01  3.680877E-01
        48  1.441716E-06 -7.950378E-01  3.680881E-01
        49 -3.329917E-06  1.050145E+00 -3.157030E-01
        50  3.611126E-06 -4.142331E-01  1.039350E-01
        51  6.854913E-02  1.583687E+01  6.647242E-01
        74 -9.657364E-02  1.166681E+01 -7.447975E-01
        75  4.280083E-07 -4.142897E-01 -1.039163E-01
        76 -1.116637E-06  1.050186E+00  3.156974E-01
        77  2.752434E-06 -7.950473E-01 -3.680852E-01
        89  7.634688E-02  1.169583E+01 -6.945203E-01
        90 -2.350710E-06 -4.142872E-01 -1.039163E-01
        91  1.444661E-06  1.050186E+00  3.156975E-01
        92 -2.354575E-06 -7.950488E-01 -3.680852E-01
        98  1.502657E-02  9.042456E+00 -6.027710E+00
        99 -2.627192E-01 -1.307622E+00 -1.104911E-01
       100  8.968498E-03 -4.724882E+00 -8.408779E-02
       101  2.644905E-01 -1.339747E+00 -1.042373E-01
       102 -8.584246E-03  8.206011E+00  6.352454E+00
       124 -2.451236E-01  6.601602E+00 -5.045277E-01
       125 -5.250974E-04  2.790690E+01  1.407216E+00
       126  2.319256E-01  6.582210E+00 -5.380240E-01
       127  2.997019E-07 -8.284634E-01  2.078644E-01
       128  3.110268E-06 -1.782026E+00  6.375679E-01
       129 -1.347905E-07  2.100289E+00 -6.314036E-01
       130 -3.423253E-06 -1.782025E+00  6.375673E-01
       131  3.607709E-07 -1.590077E+00  7.361742E-01
       153  4.738283E-01 -4.275419E+01 -1.255962E+00
       154 -2.218735E-01  3.107810E+01 -6.011863E-02
       155  1.846204E+00 -3.875548E+01  1.045989E+00
       156 -7.981283E-06 -8.285155E-01 -1.687240E-05
       157 -5.189384E-06 -1.782031E+00  4.781694E-01
       158  3.956979E-06  2.100329E+00  7.889672E-06
       159 -9.613026E-08 -1.782074E+00 -4.781714E-01
       160 -8.276027E-07 -1.590088E+00 -2.291632E-06
       182 -2.862767E+00  1.102997E+01  8.975629E-01
       183  6.484849E-03  2.088669E+01 -1.312975E+00
       184  2.860261E+00  1.103030E+01  8.511387E-01
       185  8.797834E-07 -8.300443E-01 -2.078287E-01
       186  1.718337E-06 -1.783542E+00 -6.375499E-01
       187 -3.270024E-07  2.098917E+00  6.313955E-01
       188 -1.961858E-06 -1.783541E+00 -6.375496E-01
       189  2.730994E-07 -1.591559E+00 -7.361672E-01
       211 -1.825150E+00 -3.877963E+01  9.646116E-01
       212  2.630360E-01  3.105828E+01 -1.136069E-01
       213 -4.759469E-01 -4.275330E+01 -1.174625E+00
       214  6.329177E-06 -8.285159E-01 -1.564008E-05
       215 -1.034203E-06 -1.782072E+00 -4.781716E-01
       216 -3.167084E-06  2.100329E+00  7.319666E-06
       217  4.255622E-06 -1.782032E+00  4.781696E-01
       218  4.114900E-07 -1.590088E+00 -3.160248E-06
       250 -3.328645E-02 -7.435128E+01 -3.432701E+00
       251  1.601117E+00  2.445805E+01  1.289073E+00
       252  2.335948E-03  5.951060E+01  1.805335E-01
       253 -1.620479E+00  2.452885E+01  1.233783E+00
       254  1.886462E-02 -6.876250E+01  5.681872E-01
       255  2.242430E-06 -1.657036E+00 -4.134029E-05
       256  5.755991E-07 -3.564063E+00  9.563319E-01
       257  4.941224E-06 -3.564104E+00 -1.816020E-05
       258 -4.448277E-07  4.200662E+00  1.627789E-05
       259 -4.723058E-06 -3.564104E+00 -1.834776E-05
       260  1.153689E-06 -3.564155E+00 -9.563401E-01
       261 -3.393926E-07 -3.180180E+00 -6.376216E-06

 displacements (vx,vy,vz) for set NALL and time  0.2000000E-01

         5  0.000000E+00  0.000000E+00  0.000000E+00
         6  0.000000E+00  0.000000E+00  0.000000E+00
         7  0.000000E+00  0.000000E+00  0.000000E+00
         8  0.000000E+00  0.000000E+00  0.000000E+00
        21  0.000000E+00  0.000000E+00  0.000000E+00
        22  0.000000E+00  0.000000E+00  0.000000E+00
        23  0.000000E+00  0.000000E+00  0.000000E+00
        24  0.000000E+00  0.000000E+00  0.000000E+00
        25  0.000000E+00  0.000000E+00  0.000000E+00
        26  0.000000E+00  0.000000E+00  0.000000E+00
        27  0.000000E+00  0.000000E+00  0.000000E+00
        28  0.000000E+00  0.000000E+00  0.000000E+00
        29  0.000000E+00  0.000000E+00  0.000000E+00
        30  0.000000E+00  0.000000E+00  0.000000E+00
        31  0.000000E+00  0.000000E+00  0.000000E+00
        32  0.000000E+00  0.000000E+00  0.000000E+00
        44 -2.393436E-05  9.935716E-04 -1.361722E-04
        45 -9.250552E-06  7.495969E-04 -2.398045E-04
        46  1.837198E-05  5.577718E-04 -2.662183E-04
        47 -3.265316E-05  2.268699E-04 -1.700017E-04
        48  3.284259E-05  2.268527E-04 -1.702347E-04
        49 -1.861207E-05  5.580766E-04 -2.665043E-04
        50  1.090183E-05  7.488330E-04 -2.402157E-04
        51  2.171497E-05  9.964940E-04 -1.366096E-04
        74  1.344110E-05  1.082914E-03  1.406455E-04
        75 -1.228960E-05  7.820313E-04  2.444666E-04
        76 -5.524571E-06  5.392592E-04  2.591918E-04
        77  3.846775E-05  2.149002E-04  1.681414E-04
        89 -1.029824E-05  1.084940E-03  1.402136E-04
        90  1.201474E-05  7.814417E-04  2.442659E-04
        91  6.175455E-06  5.394063E-04  2.590315E-04
        92 -3.847653E-05  2.147896E-04  1.680770E-04
        98  0.000000E+00  0.000000E+00  0.000000E+00
        99  0.000000E+00  0.000000E+00  0.000000E+00
       100  0.000000E+00  0.000000E+00  0.000000E+00
       101  0.000000E+00  0.000000E+00  0.000000E+00
       102  0.000000E+00  0.000000E+00  0.000000E+00
       124 -6.524757E-06  8.966373E-04 -1.320733E-04
       125  1.109081E-06  1.009571E-03 -1.333402E-04
       126  6.650111E-06  8.946433E-04 -1.297925E-04
       127 -2.314724E-07  7.656064E-04 -2.361524E-04
       128 -5.277156E-06  5.809031E-04 -2.751570E-04
       129  6.923528E-07  5.466055E-04 -2.775338E-04
       130  5.826937E-06  5.808381E-04 -2.754655E-04
       131  1.710807E-08  2.313470E-04 -1.669280E-04
       153  2.322122E-05  1.154393E-03 -6.367391E-05
       154  1.994714E-05  9.398098E-04  2.715791E-06
       155 -2.519189E-05  1.174252E-03  5.815641E-05
       156  1.598148E-05  7.938668E-04  5.299901E-06
       157 -1.577594E-06  4.928303E-04 -1.111383E-04
       158 -1.000770E-05  5.259529E-04  2.164910E-06
       159  2.490724E-06  4.900439E-04  1.117912E-04
       160 -4.191016E-06  2.029155E-04 -8.101718E-07
       182  1.729220E-05  8.532106E-04  1.269652E-04
       183 -6.903594E-08  1.064945E-03  1.467732E-04
       184 -1.590058E-05  8.546331E-04  1.282357E-04
       185  6.311791E-07  7.903550E-04  2.221853E-04
       186 -6.338082E-06  5.903916E-04  2.777226E-04
       187 -2.847476E-07  5.286936E-04  2.782969E-04
       188  6.390961E-06  5.903978E-04  2.773250E-04
       189  3.340068E-08  2.247411E-04  1.677457E-04
       211  2.741539E-05  1.175138E-03  5.685839E-05
       212 -1.927743E-05  9.398156E-04  2.497922E-06
       213 -2.434156E-05  1.155688E-03 -6.270079E-05
       214 -1.537544E-05  7.943564E-04  5.015802E-06
       215 -2.086695E-06  4.897925E-04  1.118249E-04
       216  1.026673E-05  5.252656E-04  1.932909E-06
       217  1.644500E-06  4.926619E-04 -1.117059E-04
       218  4.304274E-06  2.028926E-04 -9.191190E-07
       250  9.787032E-07  1.056389E-03 -5.208547E-05
       251 -4.239821E-06  7.624667E-04 -4.522528E-06