    1C
    1UUSER                                                              
    1UDATE              11.july.2018                                    
    1UTIME              15:10:57                                        
    1UHOST                                                              
    1UPGM               CalculiX                                        
    1UVERSION           Version 2.13                             
    1UCOMPILETIME       jue jun 14 00:40:39 CEST 2018                    
    1UDIR                                                               
    1UDBN                                                               
    1UMAT    1EL                                                        
    2C                            81                                     1
 -1         5 0.00000E+00 0.00000E+00 8.00000E+00
 -1         6 1.00000E+00 0.00000E+00 8.00000E+00
 -1         7 1.00000E+00 1.00000E+00 8.00000E+00
 -1         8 0.00000E+00 1.00000E+00 8.00000E+00
 -1        21 2.50000E-01 0.00000E+00 8.00000E+00
 -1        22 5.00000E-01 0.00000E+00 8.00000E+00
 -1        23 7.50000E-01 0.00000E+00 8.00000E+00
 -1        24 1.00000E+00 2.50000E-01 8.00000E+00
 -1        25 1.00000E+00 5.00000E-01 8.00000E+00
 -1        26 1.00000E+00 7.50000E-01 8.00000E+00
 -1        27 7.50000E-01 1.00000E+00 8.00000E+00
 -1        28 5.00000E-01 1.00000E+00 8.00000E+00
 -1        29 2.50000E-01 1.00000E+00 8.00000E+00
 -1        30 0.00000E+00 7.50000E-01 8.00000E+00
 -1        31 0.00000E+00 5.00000E-01 8.00000E+00
 -1        32 0.00000E+00 2.50000E-01 8.00000E+00
 -1        44 1.00000E+00 0.00000E+00 6.00000E+00
 -1        45 1.00000E+00 0.00000E+00 6.50000E+00
 -1        46 1.00000E+00 0.00000E+00 7.00000E+00
 -1        47 1.00000E+00 0.00000E+00 7.50000E+00
 -1        48 0.00000E+00 0.00000E+00 7.50000E+00
 -1        49 0.00000E+00 0.00000E+00 7.00000E+00
 -1        50 0.00000E+00 0.00000E+00 6.50000E+00
 -1        51 0.00000E+00 0.00000E+00 6.00000E+00
 -1        74 1.00000E+00 1.00000E+00 6.00000E+00
 -1        75 1.00000E+00 1.00000E+00 6.50000E+00
 -1        76 1.00000E+00 1.00000E+00 7.00000E+00
 -1        77 1.00000E+00 1.00000E+00 7.50000E+00
 -1        89 0.00000E+00 1.00000E+00 6.00000E+00
 -1        90 0.00000E+00 1.00000E+00 6.50000E+00
 -1        91 0.00000E+00 1.00000E+00 7.00000E+00
 -1        92 0.00000E+00 1.00000E+00 7.50000E+00
 -1        98 5.00000E-01 2.50000E-01 8.00000E+00
 -1        99 2.50000E-01 5.00000E-01 8.00000E+00
 -1       100 5.00000E-01 5.00000E-01 8.00000E+00
 -1       101 7.50000E-01 5.00000E-01 8.00000E+00
 -1       102 5.00000E-01 7.50000E-01 8.00000E+00
 -1       124 2.50000E-01 0.00000E+00 6.00000E+00
 -1       125 5.00000E-01 0.00000E+00 6.00000E+00
 -1       126 7.50000E-01 0.00000E+00 6.00000E+00
 -1       127 5.00000E-01 0.00000E+00 6.50000E+00
 -1       128 2.50000E-01 0.00000E+00 7.00000E+00
 -1       129 5.00000E-01 0.00000E+00 7.00000E+00
 -1       130 7.50000E-01 0.00000E+00 7.00000E+00
 -1       131 5.00000E-01 0.00000E+00 7.50000E+00
 -1       153 1.00000E+00 2.50000E-01 6.00000E+00
 -1       154 1.00000E+00 5.00000E-01 6.00000E+00
 -1       155 1.00000E+00 7.50000E-01 6.00000E+00
 -1       156 1.00000E+00 5.00000E-01 6.50000E+00
 -1       157 1.00000E+00 2.50000E-01 7.00000E+00
 -1       158 1.00000E+00 5.00000E-01 7.00000E+00
 -1       159 1.00000E+00 7.50000E-01 7.00000E+00
 -1       160 1.00000E+00 5.00000E-01 7.50000E+00
 -1       182 7.50000E-01 1.00000E+00 6.00000E+00
 -1       183 5.00000E-01 1.00000E+00 6.00000E+00
 -1       184 2.50000E-01 1.00000E+00 6.00000E+00
 -1       185 5.00000E-01 1.00000E+00 6.50000E+00
 -1       186 7.50000E-01 1.00000E+00 7.00000E+00
 -1       187 5.00000E-01 1.00000E+00 7.00000E+00
 -1       188 2.50000E-01 1.00000E+00 7.00000E+00
 -1       189 5.00000E-01 1.00000E+00 7.50000E+00
 -1       211 0.00000E+00 7.50000E-01 6.00000E+00
 -1       212 0.00000E+00 5.00000E-01 6.00000E+00
 -1       213 0.00000E+00 2.50000E-01 6.00000E+00
 -1       214 0.00000E+00 5.00000E-01 6.50000E+00
 -1       215 0.00000E+00 7.50000E-01 7.00000E+00
 -1       216 0.00000E+00 5.00000E-01 7.00000E+00
 -1       217 0.00000E+00 2.50000E-01 7.00000E+00
 -1       218 0.00000E+00 5.00000E-01 7.50000E+00
 -1       250 5.00000E-01 2.50000E-01 6.00000E+00
 -1       251 2.50000E-01 5.00000E-01 6.00000E+00
 -1       252 5.00000E-01 5.00000E-01 6.00000E+00
 -1       253 7.50000E-01 5.00000E-01 6.00000E+00
 -1       254 5.00000E-01 7.50000E-01 6.00000E+00
 -1       255 5.00000E-01 5.00000E-01 6.50000E+00
 -1       256 5.00000E-01 2.50000E-01 7.00000E+00
 -1       257 2.50000E-01 5.00000E-01 7.00000E+00
 -1       258 5.00000E-01 5.00000E-01 7.00000E+00
 -1       259 7.50000E-01 5.00000E-01 7.00000E+00
 -1       260 5.00000E-01 7.50000E-01 7.00000E+00
 -1       261 5.00000E-01 5.00000E-01 7.50000E+00
 -3
    3C                             8                                     1
 -1        25    4    0    1
 -2        51       125       252       212        49       129       258       216       124       250
 -2       251       213        50       127       255       214       128       256       257       217
 -1        26    4    0    1
 -2       125        44       154       252       129        46       158       258       126       153
 -2       253       250       127        45       156       255       130       157       259       256
 -1        27    4    0    1
 -2       212       252       183        89       216       258       187        91       251       254
 -2       184       211       214       255       185        90       257       260       188       215
 -1        28    4    0    1
 -2       252       154        74       183       258       158        76       187       253       155
 -2       182       254       255       156        75       185       259       159       186       260
 -1        29    4    0    1
 -2        49       129       258       216         5        22       100        31       128       256
 -2       257       217        48       131       261       218        21        98        99        32
 -1        30    4    0    1
 -2       129        46       158       258        22         6        25       100       130       157
 -2       259       256       131        47       160       261        23        24       101        98
 -1        31    4    0    1
 -2       216       258       187        91        31       100        28         8       257       260
 -2       188       215       218       261       189        92        99       102        29        30
 -1        32    4    0    1
 -2       258       158        76       187       100        25         7        28       259       159
 -2       186       260       261       160        77       189       101        26        27       102
 -3
    1PSTEP                         1           1           1          
  100CL  101 5.00000E-03          81                     1    1           1
 -4  DISP        4    1
 -5  D1          1    2    1    0
 -5  D2          1    2    2    0
 -5  D3          1    2    3    0
 -5  ALL         1    2    0    0    1ALL
 -1         5 0.00000E+00 0.00000E+00 0.00000E+00
 -1         6 0.00000E+00 0.00000E+00 0.00000E+00
 -1         7 0.00000E+00 0.00000E+00 0.00000E+00
 -1         8 0.00000E+00 0.00000E+00 0.00000E+00
 -1        21 0.00000E+00 0.00000E+00 0.00000E+00
 -1        22 0.00000E+00 0.00000E+00 0.00000E+00
 -1        23 0.00000E+00 0.00000E+00 0.00000E+00
 -1        24 0.00000E+00 0.00000E+00 0.00000E+00
 -1        25 0.00000E+00 0.00000E+00 0.00000E+00
 -1        26 0.00000E+00 0.00000E+00 0.00000E+00
 -1        27 0.00000E+00 0.00000E+00 0.00000E+00
 -1        28 0.00000E+00 0.00000E+00 0.00000E+00
 -1        29 0.00000E+00 0.00000E+00 0.00000E+00
 -1        30 0.00000E+00 0.00000E+00 0.00000E+00
 -1        31 0.00000E+00 0.00000E+00 0.00000E+00
 -1        32 0.00000E+00 0.00000E+00 0.00000E+00
 -1        44-6.49171E-05-3.46198E-03 4.47802E-04
 -1        45 5.78510E-05-2.55570E-03 7.85181E-04
 -1        46-4.61557E-05-1.79635E-03 9.49776E-04
 -1        47 1.30583E-04-6.75083E-04 5.42269E-04
 -1        48-1.30583E-04-6.75083E-04 5.42269E-04
 -1        49 4.61557E-05-1.79635E-03 9.49776E-04
 -1        50-5.78507E-05-2.55570E-03 7.85181E-04
 -1        51 6.49175E-05-3.46198E-03 4.47802E-04
 -1        74 3.54368E-04-4.41985E-03-4.93996E-04
 -1        75 2.04239E-04-2.97533E-03-7.85584E-04
 -1        76-1.16259E-04-1.59678E-03-9.51130E-04
 -1        77-2.11626E-04-5.24589E-04-5.57151E-04
 -1        89-3.54367E-04-4.41985E-03-4.93996E-04
 -1        90-2.04238E-04-2.97533E-03-7.85584E-04
 -1        91 1.16259E-04-1.59678E-03-9.51130E-04
 -1        92 2.11626E-04-5.24589E-04-5.57151E-04
 -1        98 0.00000E+00 0.00000E+00 0.00000E+00
 -1        99 0.00000E+00 0.00000E+00 0.00000E+00
 -1       100 0.00000E+00 0.00000E+00 0.00000E+00
 -1       101 0.00000E+00 0.00000E+00 0.00000E+00
 -1       102 0.00000E+00 0.00000E+00 0.00000E+00
 -1       124 1.35873E-04-2.96530E-03 4.28542E-04
 -1       125 3.70384E-10-3.57880E-03 4.47677E-04
 -1       126-1.35872E-04-2.96530E-03 4.28542E-04
 -1       127 1.48152E-11-2.55888E-03 9.02575E-04
 -1       128-6.23695E-06-1.95230E-03 9.47232E-04
 -1       129 1.42984E-10-1.81540E-03 9.40023E-04
 -1       130 6.23701E-06-1.95230E-03 9.47232E-04
 -1       131 2.99923E-12-7.36615E-04 5.56261E-04
 -1       153 7.67926E-05-3.61436E-03 1.90554E-04
 -1       154-1.09359E-04-2.48327E-03-2.06754E-05
 -1       155-8.52443E-05-3.89713E-03-2.37417E-04
 -1       156-1.17098E-04-2.78677E-03-6.56292E-05
 -1       157-2.26320E-05-1.51029E-03 3.92554E-04
 -1       158 8.47665E-05-1.56453E-03-2.96923E-05
 -1       159 5.17612E-05-1.47058E-03-4.11031E-04
 -1       160 3.89891E-05-6.57495E-04 4.81706E-06
 -1       182 1.39126E-04-2.56056E-03-4.69932E-04
 -1       183 6.62041E-10-4.33818E-03-4.76089E-04
 -1       184-1.39125E-04-2.56056E-03-4.69932E-04
 -1       185 6.31241E-11-2.82234E-03-8.70397E-04
 -1       186-4.84858E-05-2.16182E-03-9.81904E-04
 -1       187 1.53817E-10-1.83450E-03-9.60858E-04
 -1       188 4.84859E-05-2.16182E-03-9.81904E-04
 -1       189 3.25938E-12-7.22423E-04-5.64547E-04
 -1       211 8.52440E-05-3.89713E-03-2.37417E-04
 -1       212 1.09360E-04-2.48327E-03-2.06754E-05
 -1       213-7.67926E-05-3.61436E-03 1.90554E-04
 -1       214 1.17099E-04-2.78677E-03-6.56293E-05
 -1       215-5.17611E-05-1.47058E-03-4.11031E-04
 -1       216-8.47668E-05-1.56453E-03-2.96924E-05
 -1       217 2.26321E-05-1.51029E-03 3.92553E-04
 -1       218-3.89892E-05-6.57495E-04 4.81704E-06
 -1       250 1.91863E-10-4.09204E-03 1.74135E-04
 -1       251 4.07751E-05-2.56900E-03-1.03424E-05
 -1       252-1.87094E-10-3.12813E-03-1.59022E-05
 -1       253-4.07752E-05-2.56900E-03-1.03423E-05
 -1       254 2.17237E-10-4.39165E-03-2.54111E-04
 -1       255 6.56969E-11-2.59716E-03-3.17491E-05
 -1       256 4.49536E-11-1.60491E-03 3.94604E-04
 -1       257-4.28366E-05-1.74708E-03-1.19626E-05
 -1       258 7.15176E-12-1.79010E-03-1.45574E-05
 -1       259 4.28366E-05-1.74708E-03-1.19626E-05
 -1       260 7.72820E-11-1.62719E-03-4.17374E-04
 -1       261 3.26107E-11-7.16063E-04-1.83437E-06
 -3
    1PSTEP                         2           2           1          
  100CL  102 1.00000E-02          81                     1    2           1
 -4  DISP        4    1
 -5  D1          1    2    1    0
 -5  D2          1    2    2    0
 -5  D3          1    2    3    0
 -5  ALL         1    2    0    0    1ALL
 -1         5 0.00000E+00 0.00000E+00 0.00000E+00
 -1         6 0.00000E+00 0.00000E+00 0.00000E+00
 -1         7 0.00000E+00 0.00000E+00 0.00000E+00
 -1         8 0.00000E+00 0.00000E+00 0.00000E+00
 -1        21 0.00000E+00 0.00000E+00 0.00000E+00
 -1        22 0.00000E+00 0.00000E+00 0.00000E+00
 -1        23 0.00000E+00 0.00000E+00 0.00000E+00
 -1        24 0.00000E+00 0.00000E+00 0.00000E+00
 -1        25 0.00000E+00 0.00000E+00 0.00000E+00
 -1        26 0.00000E+00 0.00000E+00 0.00000E+00
 -1        27 0.00000E+00 0.00000E+00 0.00000E+00
 -1        28 0.00000E+00 0.00000E+00 0.00000E+00
 -1        29 0.00000E+00 0.00000E+00 0.00000E+00
 -1        30 0.00000E+00 0.00000E+00 0.00000E+00
 -1        31 0.00000E+00 0.00000E+00 0.00000E+00
 -1        32 0.00000E+00 0.00000E+00 0.00000E+00
 -1        44-1.51048E-04 1.60923E-03-2.33933E-04
 -1        45-3.51677E-05 1.24948E-03-3.77301E-04
 -1        46 4.14882E-05 9.13781E-04-4.32303E-04
 -1        47-5.40140E-05 3.69759E-04-2.84003E-04
 -1        48 5.40139E-05 3.69759E-04-2.84003E-04
 -1        49-4.14883E-05 9.13781E-04-4.32304E-04
 -1        50 3.51675E-05 1.24948E-03-3.77301E-04
 -1        51 1.51048E-04 1.60923E-03-2.33933E-04
 -1        74 1.49627E-04 1.61398E-03 2.34165E-04
 -1        75 3.38749E-05 1.25156E-03 3.77305E-04
 -1        76-4.06849E-05 9.12795E-04 4.32311E-04
 -1        77 5.44147E-05 3.69013E-04 2.84078E-04
 -1        89-1.49628E-04 1.61398E-03 2.34165E-04
 -1        90-3.38754E-05 1.25156E-03 3.77305E-04
 -1        91 4.06849E-05 9.12795E-04 4.32312E-04
 -1        92-5.44146E-05 3.69013E-04 2.84078E-04
 -1        98 0.00000E+00 0.00000E+00 0.00000E+00
 -1        99 0.00000E+00 0.00000E+00 0.00000E+00
 -1       100 0.00000E+00 0.00000E+00 0.00000E+00
 -1       101 0.00000E+00 0.00000E+00 0.00000E+00
 -1       102 0.00000E+00 0.00000E+00 0.00000E+00
 -1       124 4.65266E-06 1.47958E-03-2.20457E-04
 -1       125-1.12197E-09 1.76866E-03-2.31329E-04
 -1       126-4.65448E-06 1.47958E-03-2.20457E-04
 -1       127-1.34782E-10 1.30156E-03-4.17343E-04
 -1       128-3.42236E-06 9.59173E-04-4.63530E-04
 -1       129-9.12097E-11 8.89447E-04-4.72295E-04
 -1       130 3.42231E-06 9.59173E-04-4.63530E-04
 -1       131 5.64341E-12 3.75416E-04-2.76035E-04
 -1       153 1.24678E-04 1.91675E-03-1.03870E-04
 -1       154 5.48068E-07 1.69353E-03 1.04633E-07
 -1       155-1.24644E-04 1.91814E-03 1.04107E-04
 -1       156 5.82048E-07 1.40663E-03 3.27163E-07
 -1       157-2.49552E-05 7.92900E-04-1.86044E-04
 -1       158-4.22893E-07 8.09821E-04 1.47852E-07
 -1       159 2.48106E-05 7.92708E-04 1.86138E-04
 -1       160-1.94261E-07 3.08198E-04-2.41664E-08
 -1       182 4.65270E-06 1.47757E-03 2.20667E-04
 -1       183 2.18482E-10 1.77243E-03 2.31472E-04
 -1       184-4.65297E-06 1.47757E-03 2.20667E-04
 -1       185-2.08623E-11 1.30288E-03 4.17187E-04
 -1       186-3.21583E-06 9.60219E-04 4.63704E-04
 -1       187-1.85283E-10 8.89549E-04 4.72401E-04
 -1       188 3.21568E-06 9.60219E-04 4.63704E-04
 -1       189-3.14269E-11 3.75347E-04 2.76077E-04
 -1       211 1.24643E-04 1.91814E-03 1.04107E-04
 -1       212-5.49225E-07 1.69353E-03 1.04715E-07
 -1       213-1.24677E-04 1.91675E-03-1.03870E-04
 -1       214-5.82745E-07 1.40663E-03 3.27280E-07
 -1       215-2.48106E-05 7.92708E-04 1.86138E-04
 -1       216 4.23095E-07 8.09821E-04 1.48003E-07
 -1       217 2.49550E-05 7.92901E-04-1.86044E-04
 -1       218 1.94346E-07 3.08198E-04-2.41214E-08
 -1       250-2.37149E-11 1.90999E-03-1.03056E-04
 -1       251-1.98660E-07 1.20954E-03 5.27712E-08
 -1       252-8.12315E-12 1.54254E-03 8.05337E-08
 -1       253 1.98527E-07 1.20954E-03 5.27163E-08
 -1       254-4.66622E-10 1.91149E-03 1.03458E-04
 -1       255-1.20535E-10 1.37512E-03 1.59667E-07
 -1       256-1.79079E-10 7.83324E-04-2.07261E-04
 -1       257 2.12489E-07 9.13984E-04 6.04465E-08
 -1       258-3.27829E-11 8.12413E-04 7.32885E-08
 -1       259-2.12527E-07 9.13984E-04 6.03520E-08
 -1       260 2.48851E-11 7.83436E-04 2.07376E-04
 -1       261-2.56526E-11 3.48466E-04 9.09345E-09
 -3
    1PSTEP                         3           3           1          
  100CL  103 1.50000E-02          81                     1    3           1
 -4  DISP        4    1
 -5  D1          1    2    1    0
 -5  D2          1    2    2    0
 -5  D3          1    2    3    0
 -5  ALL         1    2    0    0    1ALL
 -1         5 0.00000E+00 0.00000E+00 0.00000E+00
 -1         6 0.00000E+00 0.00000E+00 0.00000E+00
 -1         7 0.00000E+00 0.00000E+00 0.00000E+00
 -1         8 0.00000E+00 0.00000E+00 0.00000E+00
 -1        21 0.00000E+00 0.00000E+00 0.00000E+00
 -1        22 0.00000E+00 0.00000E+00 0.00000E+00
 -1        23 0.00000E+00 0.00000E+00 0.00000E+00
 -1        24 0.00000E+00 0.00000E+00 0.00000E+00
 -1        25 0.00000E+00 0.00000E+00 0.00000E+00
 -1        26 0.00000E+00 0.00000E+00 0.00000E+00
 -1        27 0.00000E+00 0.00000E+00 0.00000E+00
 -1        28 0.00000E+00 0.00000E+00 0.00000E+00
 -1        29 0.00000E+00 0.00000E+00 0.00000E+00
 -1        30 0.00000E+00 0.00000E+00 0.00000E+00
 -1        31 0.00000E+00 0.00000E+00 0.00000E+00
 -1        32 0.00000E+00 0.00000E+00 0.00000E+00
 -1        44 1.21037E-04-1.27393E-03 1.85395E-04
 -1        45 2.79062E-05-9.89635E-04 2.98786E-04
 -1        46-3.30045E-05-7.24020E-04 3.42155E-04
 -1        47 4.27059E-05-2.93167E-04 2.25086E-04
 -1        48-4.27057E-05-2.93166E-04 2.25085E-04
 -1        49 3.30053E-05-7.24020E-04 3.42155E-04
 -1        50-2.79046E-05-9.89635E-04 2.98786E-04
 -1        51-1.21033E-04-1.27393E-03 1.85395E-04
 -1        74-1.20995E-04-1.27413E-03-1.85408E-04
 -1        75-2.78584E-05-9.89720E-04-2.98787E-04
 -1        76 3.29737E-05-7.23982E-04-3.42156E-04
 -1        77-4.27208E-05-2.93135E-04-2.25089E-04
 -1        89 1.20977E-04-1.27415E-03-1.85409E-04
 -1        90 2.78518E-05-9.89728E-04-2.98787E-04
 -1        91-3.29690E-05-7.23977E-04-3.42156E-04
 -1        92 4.27236E-05-2.93133E-04-2.25090E-04
 -1        98 0.00000E+00 0.00000E+00 0.00000E+00
 -1        99 0.00000E+00 0.00000E+00 0.00000E+00
 -1       100 0.00000E+00 0.00000E+00 0.00000E+00
 -1       101 0.00000E+00 0.00000E+00 0.00000E+00
 -1       102 0.00000E+00 0.00000E+00 0.00000E+00
 -1       124-4.22494E-06-1.17211E-03 1.74691E-04
 -1       125 3.69274E-09-1.40098E-03 1.83313E-04
 -1       126 4.23274E-06-1.17210E-03 1.74691E-04
 -1       127 6.47394E-10-1.03127E-03 3.30367E-04
 -1       128 2.76012E-06-7.59736E-04 3.67137E-04
 -1       129 6.77888E-10-7.04488E-04 3.74173E-04
 -1       130-2.75959E-06-7.59737E-04 3.67137E-04
 -1       131-9.74426E-11-2.97460E-04 2.18660E-04
 -1       153-9.99922E-05-1.51929E-03 8.23498E-05
 -1       154-2.84645E-08-1.34501E-03-6.00437E-09
 -1       155 1.00001E-04-1.51934E-03-8.23629E-05
 -1       156-2.56515E-08-1.11444E-03-1.51305E-08
 -1       157 2.00418E-05-6.28423E-04 1.47309E-04
 -1       158 2.05840E-08-6.41752E-04-6.55742E-09
 -1       159-2.00358E-05-6.28418E-04-1.47314E-04
 -1       160 9.21841E-09-2.44002E-04 1.26952E-09
 -1       182-4.24256E-06-1.17202E-03-1.74703E-04
 -1       183 6.62199E-09-1.40116E-03-1.83322E-04
 -1       184 4.24498E-06-1.17201E-03-1.74703E-04
 -1       185 7.39021E-10-1.03134E-03-3.30363E-04
 -1       186 2.75450E-06-7.59787E-04-3.67146E-04
 -1       187 6.22222E-10-7.04498E-04-3.74180E-04
 -1       188-2.75264E-06-7.59789E-04-3.67146E-04
 -1       189-2.88870E-10-2.97458E-04-2.18663E-04
 -1       211-9.99953E-05-1.51934E-03-8.23634E-05
 -1       212 3.09116E-08-1.34501E-03-6.55511E-09
 -1       213 9.99931E-05-1.51929E-03 8.23492E-05
 -1       214 2.86371E-08-1.11444E-03-1.63055E-08
 -1       215 2.00349E-05-6.28417E-04-1.47314E-04
 -1       216-2.13009E-08-6.41751E-04-7.50332E-09
 -1       217-2.00413E-05-6.28422E-04 1.47308E-04
 -1       218-9.47197E-09-2.44002E-04 1.26756E-09
 -1       250 6.64070E-10-1.51208E-03 8.17602E-05
 -1       251 3.81335E-09-9.57638E-04-3.63524E-09
 -1       252-8.66481E-11-1.22184E-03-4.90245E-09
 -1       253-6.02361E-09-9.57639E-04-3.32282E-09
 -1       254-2.27867E-11-1.51217E-03-8.17820E-05
 -1       255 1.07031E-09-1.08995E-03-8.81424E-09
 -1       256 4.26045E-10-6.20409E-04 1.64269E-04
 -1       257-9.23431E-09-7.24367E-04-3.79695E-09
 -1       258-3.64093E-10-6.42977E-04-4.09480E-09
 -1       259 9.29902E-09-7.24367E-04-3.22840E-09
 -1       260 8.59810E-10-6.20415E-04-1.64275E-04
 -1       261 3.70645E-11-2.75985E-04-3.94888E-10
 -3
    1PSTEP                         4           4           1          
  100CL  104 2.00000E-02          81                     1    4           1
 -4  DISP        4    1
 -5  D1          1    2    1    0
 -5  D2          1    2    2    0
 -5  D3          1    2    3    0
 -5  ALL         1    2    0    0    1ALL
 -1         5 0.00000E+00 0.00000E+00 0.00000E+00
 -1         6 0.00000E+00 0.00000E+00 0.00000E+00
 -1         7 0.00000E+00 0.00000E+00 0.00000E+00
 -1         8 0.00000E+00 0.00000E+00 0.00000E+00
 -1        21 0.00000E+00 0.00000E+00 0.00000E+00
 -1        22 0.00000E+00 0.00000E+00 0.00000E+00
 -1        23 0.00000E+00 0.00000E+00 0.00000E+00
 -1        24 0.00000E+00 0.00000E+00 0.00000E+00
 -1        25 0.00000E+00 0.00000E+00 0.00000E+00
 -1        26 0.00000E+00 0.00000E+00 0.00000E+00
 -1        27 0.00000E+00 0.00000E+00 0.00000E+00
 -1        28 0.00000E+00 0.00000E+00 0.00000E+00
 -1        29 0.00000E+00 0.00000E+00 0.00000E+00
 -1        30 0.00000E+00 0.00000E+00 0.00000E+00
 -1        31 0.00000E+00 0.00000E+00 0.00000E+00
 -1        32 0.00000E+00 0.00000E+00 0.00000E+00
 -1        44-9.40184E-05 9.88762E-04-1.43902E-04
 -1        45-2.16621E-05 7.68132E-04-2.31909E-04
 -1        46 2.56251E-05 5.61982E-04-2.65560E-04
 -1        47-3.31432E-05 2.27565E-04-1.74714E-04
 -1        48 3.31427E-05 2.27565E-04-1.74713E-04
 -1        49-2.56257E-05 5.61982E-04-2.65560E-04
 -1        50 2.16629E-05 7.68132E-04-2.31908E-04
 -1        51 9.40206E-05 9.88762E-04-1.43902E-04
 -1        74 9.40386E-05 9.88743E-04 1.43903E-04
 -1        75 2.16732E-05 7.68122E-04 2.31909E-04
 -1        76-2.56306E-05 5.61989E-04 2.65561E-04
 -1        77 3.31402E-05 2.27568E-04 1.74714E-04
 -1        89-9.40290E-05 9.88750E-04 1.43903E-04
 -1        90-2.16697E-05 7.68125E-04 2.31909E-04
 -1        91 2.56286E-05 5.61987E-04 2.65561E-04
 -1        92-3.31414E-05 2.27567E-04 1.74714E-04
 -1        98 0.00000E+00 0.00000E+00 0.00000E+00
 -1        99 0.00000E+00 0.00000E+00 0.00000E+00
 -1       100 0.00000E+00 0.00000E+00 0.00000E+00
 -1       101 0.00000E+00 0.00000E+00 0.00000E+00
 -1       102 0.00000E+00 0.00000E+00 0.00000E+00
 -1       124 3.31172E-06 9.09770E-04-1.35591E-04
 -1       125-4.39995E-09 1.08742E-03-1.42285E-04
 -1       126-3.31481E-06 9.09769E-04-1.35591E-04
 -1       127-6.09380E-10 8.00472E-04-2.56413E-04
 -1       128-2.14532E-06 5.89693E-04-2.84964E-04
 -1       129 1.64238E-10 5.46808E-04-2.90430E-04
 -1       130 2.14512E-06 5.89694E-04-2.84964E-04
 -1       131 3.32213E-10 2.30887E-04-1.69720E-04
 -1       153 7.76777E-05 1.17930E-03-6.39203E-05
 -1       154 4.01499E-09 1.04416E-03 7.89766E-10
 -1       155-7.76851E-05 1.17929E-03 6.39219E-05
 -1       156-4.60023E-10 8.65023E-04-6.31044E-11
 -1       157-1.55705E-05 4.87788E-04-1.14335E-04
 -1       158-4.52397E-10 4.98131E-04-1.88472E-10
 -1       159 1.55719E-05 4.87791E-04 1.14336E-04
 -1       160-9.10282E-11 1.89383E-04-3.17578E-11
 -1       182 3.32196E-06 9.09778E-04 1.35593E-04
 -1       183-3.38960E-09 1.08742E-03 1.42286E-04
 -1       184-3.32142E-06 9.09775E-04 1.35593E-04
 -1       185-4.27465E-10 8.00473E-04 2.56416E-04
 -1       186-2.14794E-06 5.89694E-04 2.84965E-04
 -1       187 2.87910E-11 5.46812E-04 2.90432E-04
 -1       188 2.14714E-06 5.89695E-04 2.84964E-04
 -1       189 2.80738E-10 2.30887E-04 1.69721E-04
 -1       211 7.76820E-05 1.17929E-03 6.39218E-05
 -1       212-5.10378E-10 1.04416E-03 9.38311E-10
 -1       213-7.76792E-05 1.17930E-03-6.39201E-05
 -1       214 1.19626E-09 8.65024E-04-1.14974E-10
 -1       215-1.55709E-05 4.87791E-04 1.14336E-04
 -1       216-7.30613E-11 4.98131E-04-6.07070E-12
 -1       217 1.55711E-05 4.87788E-04-1.14335E-04
 -1       218-1.93530E-10 1.89383E-04-1.02281E-10
 -1       250 1.02806E-09 1.17361E-03-6.34656E-05
 -1       251 3.21120E-09 7.43272E-04 6.90118E-10
 -1       252-8.45568E-10 9.48367E-04 7.85343E-10
 -1       253-1.42072E-09 7.43272E-04 6.37882E-10
 -1       254 6.25329E-10 1.17362E-03 6.34672E-05
 -1       255-9.46640E-10 8.46040E-04 8.15165E-10
 -1       256-4.26940E-10 4.81545E-04-1.27507E-04
 -1       257-4.34663E-10 5.62261E-04 4.99513E-10
 -1       258 7.59448E-10 4.99038E-04 3.97328E-10
 -1       259 7.20492E-10 5.62261E-04 3.76942E-10
 -1       260-2.74773E-10 4.81545E-04 1.27508E-04
 -1       261 2.09132E-10 2.14212E-04-2.67848E-11
 -3
    1PSTEP                         5           5           1          
  100CL  105 2.50000E-02          81                     1    5           1
 -4  DISP        4    1
 -5  D1          1    2    1    0
 -5  D2          1    2    2    0
 -5  D3          1    2    3    0
 -5  ALL         1    2    0    0    1ALL
 -1         5 0.00000E+00 0.00000E+00 0.00000E+00
 -1         6 0.00000E+00 0.00000E+00 0.00000E+00
 -1         7 0.00000E+00 0.00000E+00 0.00000E+00
 -1         8 0.00000E+00 0.00000E+00 0.00000E+00
 -1        21 0.00000E+00 0.00000E+00 0.00000E+00
 -1        22 0.00000E+00 0.00000E+00 0.00000E+00
 -1        23 0.00000E+00 0.00000E+00 0.00000E+00
 -1        24 0.00000E+00 0.00000E+00 0.00000E+00
 -1        25 0.00000E+00 0.00000E+00 0.00000E+00
 -1        26 0.00000E+00 0.00000E+00 0.00000E+00
 -1        27 0.00000E+00 0.00000E+00 0.00000E+00
 -1        28 0.00000E+00 0.00000E+00 0.00000E+00
 -1        29 0.00000E+00 0.00000E+00 0.00000E+00
 -1        30 0.00000E+00 0.00000E+00 0.00000E+00
 -1        31 0.00000E+00 0.00000E+00 0.00000E+00
 -1        32 0.00000E+00 0.00000E+00 0.00000E+00
 -1        44 7.09740E-05-7.46407E-04 1.08626E-04
 -1        45 1.63487E-05-5.79855E-04 1.75065E-04
 -1        46-1.93429E-05-4.24235E-04 2.00467E-04
 -1        47 2.50198E-05-1.71786E-04 1.31889E-04
 -1        48-2.50181E-05-1.71787E-04 1.31889E-04
 -1        49 1.93458E-05-4.24236E-04 2.00468E-04
 -1        50-1.63535E-05-5.79853E-04 1.75065E-04
 -1        51-7.09827E-05-7.46403E-04 1.08626E-04
 -1        74-7.10053E-05-7.46370E-04-1.08626E-04
 -1        75-1.63672E-05-5.79836E-04-1.75065E-04
 -1        76 1.93529E-05-4.24245E-04-2.00468E-04
 -1        77-2.50144E-05-1.71792E-04-1.31889E-04
 -1        89 7.09963E-05-7.46378E-04-1.08626E-04
 -1        90 1.63640E-05-5.79840E-04-1.75066E-04
 -1        91-1.93507E-05-4.24243E-04-2.00468E-04
 -1        92 2.50157E-05-1.71791E-04-1.31890E-04
 -1        98 0.00000E+00 0.00000E+00 0.00000E+00
 -1        99 0.00000E+00 0.00000E+00 0.00000E+00
 -1       100 0.00000E+00 0.00000E+00 0.00000E+00
 -1       101 0.00000E+00 0.00000E+00 0.00000E+00
 -1       102 0.00000E+00 0.00000E+00 0.00000E+00
 -1       124-2.50040E-06-6.86769E-04 1.02352E-04
 -1       125 5.42478E-09-8.20882E-04 1.07406E-04
 -1       126 2.50271E-06-6.86767E-04 1.02352E-04
 -1       127 1.09568E-10-6.04268E-04 1.93561E-04
 -1       128 1.61989E-06-4.45154E-04 2.15117E-04
 -1       129 2.29017E-10-4.12778E-04 2.19243E-04
 -1       130-1.61853E-06-4.45155E-04 2.15117E-04
 -1       131-2.20171E-10-1.74293E-04 1.28119E-04
 -1       153-5.86423E-05-8.90257E-04 4.82506E-05
 -1       154-5.19291E-09-7.88240E-04-3.76591E-10
 -1       155 5.86528E-05-8.90240E-04-4.82512E-05
 -1       156 1.41902E-09-6.52997E-04 1.11411E-09
 -1       157 1.17552E-05-3.68225E-04 8.63095E-05
 -1       158-1.62662E-10-3.76035E-04 6.94274E-10
 -1       159-1.17575E-05-3.68230E-04-8.63100E-05
 -1       160-2.73233E-10-1.42962E-04-9.47072E-12
 -1       182-2.51248E-06-6.86782E-04-1.02352E-04
 -1       183 2.28098E-09-8.20867E-04-1.07406E-04
 -1       184 2.51282E-06-6.86779E-04-1.02353E-04
 -1       185-6.47267E-10-6.04267E-04-1.93565E-04
 -1       186 1.62336E-06-4.45152E-04-2.15117E-04
 -1       187 8.69553E-10-4.12781E-04-2.19245E-04
 -1       188-1.62203E-06-4.45153E-04-2.15117E-04
 -1       189-4.39715E-11-1.74294E-04-1.28120E-04
 -1       211-5.86485E-05-8.90240E-04-4.82513E-05
 -1       212-5.08053E-10-7.88234E-04-7.56637E-10
 -1       213 5.86448E-05-8.90253E-04 4.82505E-05
 -1       214-2.53809E-09-6.52995E-04 1.42292E-09
 -1       215 1.17562E-05-3.68229E-04-8.63102E-05
 -1       216 9.98558E-10-3.76036E-04 4.24833E-10
 -1       217-1.17557E-05-3.68226E-04 8.63098E-05
 -1       218 6.32306E-10-1.42963E-04 5.62447E-11
 -1       250-1.03993E-09-8.85940E-04 4.79076E-05
 -1       251-5.80707E-09-5.61079E-04-5.82472E-10
 -1       252-1.40030E-09-7.15902E-04-2.78250E-10
 -1       253 2.51863E-10-5.61076E-04-4.66340E-10
 -1       254 4.18994E-12-8.85942E-04-4.79078E-05
 -1       255 9.77615E-10-6.38671E-04-2.94777E-10
 -1       256 3.79899E-10-3.63510E-04 9.62544E-05
 -1       257 1.09723E-09-4.24446E-04-3.04080E-10
 -1       258-8.89120E-10-3.76713E-04-1.76435E-10
 -1       259-1.25082E-09-4.24447E-04-1.41060E-10
 -1       260 1.03982E-10-3.63510E-04-9.62546E-05
 -1       261-1.13108E-10-1.61706E-04 3.39367E-11
 -3
    1PSTEP                         6           6           1          
  100CL  106 3.00000E-02          81                     1    6           1
 -4  DISP        4    1
 -5  D1          1    2    1    0
 -5  D2          1    2    2    0
 -5  D3          1    2    3    0
 -5  ALL         1    2    0    0    1ALL
 -1         5 0.00000E+00 0.00000E+00 0.00000E+00
 -1         6 0.00000E+00 0.00000E+00 0.00000E+00
 -1         7 0.00000E+00 0.00000E+00 0.00000E+00
 -1         8 0.00000E+00 0.00000E+00 0.00000E+00
 -1        21 0.00000E+00 0.00000E+00 0.00000E+00
 -1        22 0.00000E+00 0.00000E+00 0.00000E+00
 -1        23 0.00000E+00 0.00000E+00 0.00000E+00
 -1        24 0.00000E+00 0.00000E+00 0.00000E+00
 -1        25 0.00000E+00 0.00000E+00 0.00000E+00
 -1        26 0.00000E+00 0.00000E+00 0.00000E+00
 -1        27 0.00000E+00 0.00000E+00 0.00000E+00
 -1        28 0.00000E+00 0.00000E+00 0.00000E+00
 -1        29 0.00000E+00 0.00000E+00 0.00000E+00
 -1        30 0.00000E+00 0.00000E+00 0.00000E+00
 -1        31 0.00000E+00 0.00000E+00 0.00000E+00
 -1        32 0.00000E+00 0.00000E+00 0.00000E+00
 -1        44-5.14794E-05 5.41235E-04-7.87629E-05
 -1        45-1.18592E-05 4.20467E-04-1.26946E-04
 -1        46 1.40292E-05 3.07631E-04-1.45366E-04
 -1        47-1.81407E-05 1.24569E-04-9.56374E-05