    1C
    1UUSER                                                              
    1UDATE              11.july.2018                                    
    1UTIME              15:57:36                                        
    1UHOST                                                              
    1UPGM               CalculiX                                        
    1UVERSION           Version 2.13                             
    1UCOMPILETIME       jue jun 14 00:40:39 CEST 2018                    
    1UDIR                                                               
    1UDBN                                                               
    1UMAT    1EL                                                        
    2C                            81                                     1
 -1         5 0.00000E+00 0.00000E+00 8.00000E+00
 -1         6 1.00000E+00 0.00000E+00 8.00000E+00
 -1         7 1.00000E+00 1.00000E+00 8.00000E+00
 -1         8 0.00000E+00 1.00000E+00 8.00000E+00
 -1        21 2.50000E-01 0.00000E+00 8.00000E+00
 -1        22 5.00000E-01 0.00000E+00 8.00000E+00
 -1        23 7.50000E-01 0.00000E+00 8.00000E+00
 -1        24 1.00000E+00 2.50000E-01 8.00000E+00
 -1        25 1.00000E+00 5.00000E-01 8.00000E+00
 -1        26 1.00000E+00 7.50000E-01 8.00000E+00
 -1        27 7.50000E-01 1.00000E+00 8.00000E+00
 -1        28 5.00000E-01 1.00000E+00 8.00000E+00
 -1        29 2.50000E-01 1.00000E+00 8.00000E+00
 -1        30 0.00000E+00 7.50000E-01 8.00000E+00
 -1        31 0.00000E+00 5.00000E-01 8.00000E+00
 -1        32 0.00000E+00 2.50000E-01 8.00000E+00
 -1        44 1.00000E+00 0.00000E+00 6.00000E+00
 -1        45 1.00000E+00 0.00000E+00 6.50000E+00
 -1        46 1.00000E+00 0.00000E+00 7.00000E+00
 -1        47 1.00000E+00 0.00000E+00 7.50000E+00
 -1        48 0.00000E+00 0.00000E+00 7.50000E+00
 -1        49 0.00000E+00 0.00000E+00 7.00000E+00
 -1        50 0.00000E+00 0.00000E+00 6.50000E+00
 -1        51 0.00000E+00 0.00000E+00 6.00000E+00
 -1        74 1.00000E+00 1.00000E+00 6.00000E+00
 -1        75 1.00000E+00 1.00000E+00 6.50000E+00
 -1        76 1.00000E+00 1.00000E+00 7.00000E+00
 -1        77 1.00000E+00 1.00000E+00 7.50000E+00
 -1        89 0.00000E+00 1.00000E+00 6.00000E+00
 -1        90 0.00000E+00 1.00000E+00 6.50000E+00
 -1        91 0.00000E+00 1.00000E+00 7.00000E+00
 -1        92 0.00000E+00 1.00000E+00 7.50000E+00
 -1        98 5.00000E-01 2.50000E-01 8.00000E+00
 -1        99 2.50000E-01 5.00000E-01 8.00000E+00
 -1       100 5.00000E-01 5.00000E-01 8.00000E+00
 -1       101 7.50000E-01 5.00000E-01 8.00000E+00
 -1       102 5.00000E-01 7.50000E-01 8.00000E+00
 -1       124 2.50000E-01 0.00000E+00 6.00000E+00
 -1       125 5.00000E-01 0.00000E+00 6.00000E+00
 -1       126 7.50000E-01 0.00000E+00 6.00000E+00
 -1       127 5.00000E-01 0.00000E+00 6.50000E+00
 -1       128 2.50000E-01 0.00000E+00 7.00000E+00
 -1       129 5.00000E-01 0.00000E+00 7.00000E+00
 -1       130 7.50000E-01 0.00000E+00 7.00000E+00
 -1       131 5.00000E-01 0.00000E+00 7.50000E+00
 -1       153 1.00000E+00 2.50000E-01 6.00000E+00
 -1       154 1.00000E+00 5.00000E-01 6.00000E+00
 -1       155 1.00000E+00 7.50000E-01 6.00000E+00
 -1       156 1.00000E+00 5.00000E-01 6.50000E+00
 -1       157 1.00000E+00 2.50000E-01 7.00000E+00
 -1       158 1.00000E+00 5.00000E-01 7.00000E+00
 -1       159 1.00000E+00 7.50000E-01 7.00000E+00
 -1       160 1.00000E+00 5.00000E-01 7.50000E+00
 -1       182 7.50000E-01 1.00000E+00 6.00000E+00
 -1       183 5.00000E-01 1.00000E+00 6.00000E+00
 -1       184 2.50000E-01 1.00000E+00 6.00000E+00
 -1       185 5.00000E-01 1.00000E+00 6.50000E+00
 -1       186 7.50000E-01 1.00000E+00 7.00000E+00
 -1       187 5.00000E-01 1.00000E+00 7.00000E+00
 -1       188 2.50000E-01 1.00000E+00 7.00000E+00
 -1       189 5.00000E-01 1.00000E+00 7.50000E+00
 -1       211 0.00000E+00 7.50000E-01 6.00000E+00
 -1       212 0.00000E+00 5.00000E-01 6.00000E+00
 -1       213 0.00000E+00 2.50000E-01 6.00000E+00
 -1       214 0.00000E+00 5.00000E-01 6.50000E+00
 -1       215 0.00000E+00 7.50000E-01 7.00000E+00
 -1       216 0.00000E+00 5.00000E-01 7.00000E+00
 -1       217 0.00000E+00 2.50000E-01 7.00000E+00
 -1       218 0.00000E+00 5.00000E-01 7.50000E+00
 -1       250 5.00000E-01 2.50000E-01 6.00000E+00
 -1       251 2.50000E-01 5.00000E-01 6.00000E+00
 -1       252 5.00000E-01 5.00000E-01 6.00000E+00
 -1       253 7.50000E-01 5.00000E-01 6.00000E+00
 -1       254 5.00000E-01 7.50000E-01 6.00000E+00
 -1       255 5.00000E-01 5.00000E-01 6.50000E+00
 -1       256 5.00000E-01 2.50000E-01 7.00000E+00
 -1       257 2.50000E-01 5.00000E-01 7.00000E+00
 -1       258 5.00000E-01 5.00000E-01 7.00000E+00
 -1       259 7.50000E-01 5.00000E-01 7.00000E+00
 -1       260 5.00000E-01 7.50000E-01 7.00000E+00
 -1       261 5.00000E-01 5.00000E-01 7.50000E+00
 -3
    3C                             8                                     1
 -1        25    4    0    1
 -2        51       125       252       212        49       129       258       216       124       250
 -2       251       213        50       127       255       214       128       256       257       217
 -1        26    4    0    1
 -2       125        44       154       252       129        46       158       258       126       153
 -2       253       250       127        45       156       255       130       157       259       256
 -1        27    4    0    1
 -2       212       252       183        89       216       258       187        91       251       254
 -2       184       211       214       255       185        90       257       260       188       215
 -1        28    4    0    1
 -2       252       154        74       183       258       158        76       187       253       155
 -2       182       254       255       156        75       185       259       159       186       260
 -1        29    4    0    1
 -2        49       129       258       216         5        22       100        31       128       256
 -2       257       217        48       131       261       218        21        98        99        32
 -1        30    4    0    1
 -2       129        46       158       258        22         6        25       100       130       157
 -2       259       256       131        47       160       261        23        24       101        98
 -1        31    4    0    1
 -2       216       258       187        91        31       100        28         8       257       260
 -2       188       215       218       261       189        92        99       102        29        30
 -1        32    4    0    1
 -2       258       158        76       187       100        25         7        28       259       159
 -2       186       260       261       160        77       189       101        26        27       102
 -3
    1PSTEP                         1           1           1          
  100CL  101 5.00000E-03          81                     1    1           1
 -4  DISP        4    1
 -5  D1          1    2    1    0
 -5  D2          1    2    2    0
 -5  D3          1    2    3    0
 -5  ALL         1    2    0    0    1ALL
 -1         5 0.00000E+00 0.00000E+00 0.00000E+00
 -1         6 0.00000E+00 0.00000E+00 0.00000E+00
 -1         7 0.00000E+00 0.00000E+00 0.00000E+00
 -1         8 0.00000E+00 0.00000E+00 0.00000E+00
 -1        21 0.00000E+00 0.00000E+00 0.00000E+00
 -1        22 0.00000E+00 0.00000E+00 0.00000E+00
 -1        23 0.00000E+00 0.00000E+00 0.00000E+00
 -1        24 0.00000E+00 0.00000E+00 0.00000E+00
 -1        25 0.00000E+00 0.00000E+00 0.00000E+00
 -1        26 0.00000E+00 0.00000E+00 0.00000E+00
 -1        27 0.00000E+00 0.00000E+00 0.00000E+00
 -1        28 0.00000E+00 0.00000E+00 0.00000E+00
 -1        29 0.00000E+00 0.00000E+00 0.00000E+00
 -1        30 0.00000E+00 0.00000E+00 0.00000E+00
 -1        31 0.00000E+00 0.00000E+00 0.00000E+00
 -1        32 0.00000E+00 0.00000E+00 0.00000E+00
 -1        44 9.02766E-05-2.95359E-03 3.36820E-04
 -1        45 1.89127E-05-2.24863E-03 6.89748E-04
 -1        46-5.68010E-05-1.68944E-03 7.71892E-04
 -1        47 9.36063E-05-6.85043E-04 4.96277E-04
 -1        48-9.36150E-05-6.85052E-04 4.96303E-04
 -1        49 5.68726E-05-1.68937E-03 7.71914E-04
 -1        50-1.89784E-05-2.24869E-03 6.89513E-04
 -1        51-8.97662E-05-2.95308E-03 3.35974E-04
 -1        74-2.51455E-05-3.24018E-03-3.83452E-04
 -1        75 2.95627E-05-2.35198E-03-7.20977E-04
 -1        76 1.58149E-05-1.67534E-03-7.89300E-04
 -1        77-1.24350E-04-6.30222E-04-5.07804E-04
 -1        89 2.46358E-05-3.23967E-03-3.82607E-04
 -1        90-2.94966E-05-2.35205E-03-7.20741E-04
 -1        91-1.58863E-05-1.67526E-03-7.89322E-04
 -1        92 1.24359E-04-6.30231E-04-5.07830E-04
 -1        98 0.00000E+00 0.00000E+00 0.00000E+00
 -1        99 0.00000E+00 0.00000E+00 0.00000E+00
 -1       100 0.00000E+00 0.00000E+00 0.00000E+00
 -1       101 0.00000E+00 0.00000E+00 0.00000E+00
 -1       102 0.00000E+00 0.00000E+00 0.00000E+00
 -1       124-1.27549E-05-2.65585E-03 3.10159E-04
 -1       125 7.56969E-08-2.95932E-03 3.55050E-04
 -1       126 1.30435E-05-2.65615E-03 3.10461E-04
 -1       127-1.26449E-08-2.29822E-03 6.57967E-04
 -1       128 2.42718E-05-1.73749E-03 8.04533E-04
 -1       129-1.92031E-09-1.63444E-03 8.03763E-04
 -1       130-2.42358E-05-1.73751E-03 8.04561E-04
 -1       131 2.24748E-09-6.93114E-04 4.85559E-04
 -1       153-7.27678E-05-3.45032E-03 1.42962E-04
 -1       154-4.53130E-05-2.80643E-03-2.43669E-05
 -1       155 7.72186E-05-3.52650E-03-1.87951E-04
 -1       156-2.66579E-05-2.39052E-03-4.17779E-05
 -1       157 1.20371E-05-1.49496E-03 3.15127E-04
 -1       158 3.24662E-05-1.59906E-03-1.03700E-05
 -1       159 1.76773E-05-1.51270E-03-3.32364E-04
 -1       160 1.52869E-05-6.15746E-04 7.46979E-06
 -1       182-3.93981E-05-2.54394E-03-3.54378E-04
 -1       183-7.53602E-08-3.20691E-03-3.92826E-04
 -1       184 3.91103E-05-2.54365E-03-3.54076E-04
 -1       185 1.27853E-08-2.43195E-03-6.59342E-04
 -1       186 2.05011E-05-1.88167E-03-8.40905E-04
 -1       187 2.04356E-09-1.76241E-03-8.46888E-04
 -1       188-2.05369E-05-1.88164E-03-8.40877E-04
 -1       189-2.21261E-09-7.21209E-04-5.07492E-04
 -1       211-7.75111E-05-3.52621E-03-1.87648E-04
 -1       212 4.53136E-05-2.80628E-03-2.43670E-05
 -1       213 7.30606E-05-3.45003E-03 1.42659E-04
 -1       214 2.66582E-05-2.39054E-03-4.17780E-05
 -1       215-1.77021E-05-1.51266E-03-3.32336E-04
 -1       216-3.24663E-05-1.59907E-03-1.03701E-05
 -1       217-1.20121E-05-1.49492E-03 3.15100E-04
 -1       218-1.52869E-05-6.15742E-04 7.46973E-06
 -1       250 6.81174E-08-3.09490E-03 9.86375E-05
 -1       251 7.30487E-06-2.25877E-03 1.19563E-05
 -1       252 9.29409E-11-2.40059E-03-7.25557E-06
 -1       253-7.30466E-06-2.25891E-03 1.19563E-05
 -1       254-6.78097E-08-3.22133E-03-2.24628E-04
 -1       255 7.11072E-11-2.48715E-03-2.29070E-05
 -1       256-9.58464E-09-1.44680E-03 3.53175E-04
 -1       257-1.75763E-05-1.63684E-03-1.65844E-05
 -1       258 4.78467E-11-1.49166E-03-1.50366E-05
 -1       259 1.75764E-05-1.63682E-03-1.65844E-05
 -1       260 9.67821E-09-1.50558E-03-3.66194E-04
 -1       261 1.36203E-11-6.63779E-04 9.84408E-07
 -3
    1PSTEP                         2           2           1          
  100CL  102 1.00000E-02          81                     1    2           1
 -4  DISP        4    1
 -5  D1          1    2    1    0
 -5  D2          1    2    2    0
 -5  D3          1    2    3    0
 -5  ALL         1    2    0    0    1ALL
 -1         5 0.00000E+00 0.00000E+00 0.00000E+00
 -1         6 0.00000E+00 0.00000E+00 0.00000E+00
 -1         7 0.00000E+00 0.00000E+00 0.00000E+00
 -1         8 0.00000E+00 0.00000E+00 0.00000E+00
 -1        21 0.00000E+00 0.00000E+00 0.00000E+00
 -1        22 0.00000E+00 0.00000E+00 0.00000E+00
 -1        23 0.00000E+00 0.00000E+00 0.00000E+00
 -1        24 0.00000E+00 0.00000E+00 0.00000E+00
 -1        25 0.00000E+00 0.00000E+00 0.00000E+00
 -1        26 0.00000E+00 0.00000E+00 0.00000E+00
 -1        27 0.00000E+00 0.00000E+00 0.00000E+00
 -1        28 0.00000E+00 0.00000E+00 0.00000E+00
 -1        29 0.00000E+00 0.00000E+00 0.00000E+00
 -1        30 0.00000E+00 0.00000E+00 0.00000E+00
 -1        31 0.00000E+00 0.00000E+00 0.00000E+00
 -1        32 0.00000E+00 0.00000E+00 0.00000E+00
 -1        44-9.22701E-05 1.35140E-03-1.57346E-04
 -1        45-1.21202E-05 1.05021E-03-3.15351E-04
 -1        46 3.51449E-05 8.43409E-04-3.53125E-04
 -1        47-4.31132E-05 3.50699E-04-2.37318E-04
 -1        48 4.30849E-05 3.50671E-04-2.37232E-04
 -1        49-3.49138E-05 8.43640E-04-3.53053E-04
 -1        50 1.19057E-05 1.05000E-03-3.16092E-04
 -1        51 9.38893E-05 1.35301E-03-1.60024E-04
 -1        74 8.15602E-05 1.46380E-03 1.80988E-04
 -1        75-1.31409E-05 1.09447E-03 3.21551E-04
 -1        76-1.73330E-05 8.15980E-04 3.54835E-04
 -1        77 5.13473E-05 3.36043E-04 2.40024E-04
 -1        89-8.31798E-05 1.46541E-03 1.83666E-04
 -1        90 1.33552E-05 1.09425E-03 3.22292E-04
 -1        91 1.71019E-05 8.16210E-04 3.54763E-04
 -1        92-5.13191E-05 3.36015E-04 2.39938E-04
 -1        98 0.00000E+00 0.00000E+00 0.00000E+00
 -1        99 0.00000E+00 0.00000E+00 0.00000E+00
 -1       100 0.00000E+00 0.00000E+00 0.00000E+00
 -1       101 0.00000E+00 0.00000E+00 0.00000E+00
 -1       102 0.00000E+00 0.00000E+00 0.00000E+00
 -1       124 5.27372E-05 1.24651E-03-1.27223E-04
 -1       125 2.27030E-07 1.34762E-03-1.64841E-04
 -1       126-5.18342E-05 1.24558E-03-1.26279E-04
 -1       127-3.65066E-08 1.10635E-03-2.81362E-04
 -1       128-1.97356E-05 8.45447E-04-3.73415E-04
 -1       129-9.16642E-09 7.91199E-04-3.68585E-04
 -1       130 1.98487E-05 8.45366E-04-3.73325E-04
 -1       131 7.46300E-09 3.58167E-04-2.43052E-04
 -1       153 3.28097E-05 1.54556E-03-5.28391E-05
 -1       154 1.85461E-05 1.25317E-03 5.23289E-06
 -1       155-2.32567E-05 1.57647E-03 7.22244E-05
 -1       156 1.11698E-05 1.14198E-03 6.58617E-06
 -1       157-2.04296E-06 7.47761E-04-1.50695E-04
 -1       158-7.52296E-06 7.77592E-04 2.39545E-06
 -1       159 4.21571E-06 7.40119E-04 1.52456E-04
 -1       160-3.07186E-06 3.19323E-04 5.91551E-07
 -1       182 6.49769E-05 1.21546E-03 1.47552E-04
 -1       183-2.27159E-07 1.46499E-03 1.90974E-04
 -1       184-6.58803E-05 1.21638E-03 1.48496E-04
 -1       185 3.64565E-08 1.13070E-03 2.84288E-04
 -1       186-1.55584E-05 8.62038E-04 3.81729E-04
 -1       187 9.10717E-09 7.79668E-04 3.77125E-04
 -1       188 1.54453E-05 8.62119E-04 3.81818E-04
 -1       189-7.48424E-09 3.49070E-04 2.44749E-04
 -1       211 2.23311E-05 1.57737E-03 7.31698E-05
 -1       212-1.85462E-05 1.25363E-03 5.23286E-06
 -1       213-3.18841E-05 1.54646E-03-5.37846E-05
 -1       214-1.11700E-05 1.14191E-03 6.58617E-06
 -1       215-4.29756E-06 7.40232E-04 1.52545E-04
 -1       216 7.52297E-06 7.77575E-04 2.39550E-06
 -1       217 2.12473E-06 7.47875E-04-1.50784E-04
 -1       218 3.07186E-06 3.19338E-04 5.91577E-07
 -1       250 2.08031E-07 1.43460E-03-6.80596E-05
 -1       251-1.79673E-06 1.07135E-03-7.61832E-06
 -1       252-2.95853E-11 1.19568E-03-3.74965E-06
 -1       253 1.79668E-06 1.07094E-03-7.61832E-06
 -1       254-2.08147E-07 1.49470E-03 9.11004E-05
 -1       255-2.67924E-11 1.17017E-03 2.41519E-06
 -1       256-3.17102E-08 7.27480E-04-1.60322E-04
 -1       257 1.95380E-06 8.01339E-04 3.59364E-06
 -1       258-2.19047E-11 7.47464E-04 2.85790E-06
 -1       259-1.95383E-06 8.01402E-04 3.59362E-06
 -1       260 3.16677E-08 7.20752E-04 1.64626E-04
 -1       261-6.31704E-12 3.29769E-04 9.96677E-07
 -3
    1PSTEP                         3           3           1          
  100CL  103 1.50000E-02          81                     1    3           1
 -4  DISP        4    1
 -5  D1          1    2    1    0
 -5  D2          1    2    2    0
 -5  D3          1    2    3    0
 -5  ALL         1    2    0    0    1ALL
 -1         5 0.00000E+00 0.00000E+00 0.00000E+00
 -1         6 0.00000E+00 0.00000E+00 0.00000E+00
 -1         7 0.00000E+00 0.00000E+00 0.00000E+00
 -1         8 0.00000E+00 0.00000E+00 0.00000E+00
 -1        21 0.00000E+00 0.00000E+00 0.00000E+00
 -1        22 0.00000E+00 0.00000E+00 0.00000E+00
 -1        23 0.00000E+00 0.00000E+00 0.00000E+00
 -1        24 0.00000E+00 0.00000E+00 0.00000E+00
 -1        25 0.00000E+00 0.00000E+00 0.00000E+00
 -1        26 0.00000E+00 0.00000E+00 0.00000E+00
 -1        27 0.00000E+00 0.00000E+00 0.00000E+00
 -1        28 0.00000E+00 0.00000E+00 0.00000E+00
 -1        29 0.00000E+00 0.00000E+00 0.00000E+00
 -1        30 0.00000E+00 0.00000E+00 0.00000E+00
 -1        31 0.00000E+00 0.00000E+00 0.00000E+00
 -1        32 0.00000E+00 0.00000E+00 0.00000E+00
 -1        44 7.38016E-05-1.24672E-03 1.76318E-04
 -1        45 1.53059E-05-9.40595E-04 3.11051E-04
 -1        46-2.34275E-05-7.22264E-04 3.37123E-04
 -1        47 3.92659E-05-2.92391E-04 2.13948E-04
 -1        48-3.93012E-05-2.92426E-04 2.14055E-04
 -1        49 2.37158E-05-7.21977E-04 3.37213E-04
 -1        50-1.55742E-05-9.40860E-04 3.10125E-04
 -1        51-7.17765E-05-1.24470E-03 1.72974E-04
 -1        74-4.93842E-05-1.36857E-03-1.83325E-04
 -1        75 1.13874E-05-9.88280E-04-3.10140E-04
 -1        76 6.47779E-06-6.93281E-04-3.34750E-04
 -1        77-4.71299E-05-2.75390E-04-2.14571E-04
 -1        89 4.73577E-05-1.36656E-03-1.79979E-04
 -1        90-1.11191E-05-9.88545E-04-3.09214E-04
 -1        91-6.76643E-06-6.92994E-04-3.34841E-04
 -1        92 4.71652E-05-2.75425E-04-2.14677E-04
 -1        98 0.00000E+00 0.00000E+00 0.00000E+00
 -1        99 0.00000E+00 0.00000E+00 0.00000E+00
 -1       100 0.00000E+00 0.00000E+00 0.00000E+00
 -1       101 0.00000E+00 0.00000E+00 0.00000E+00
 -1       102 0.00000E+00 0.00000E+00 0.00000E+00
 -1       124-2.75725E-05-1.13817E-03 1.60674E-04
 -1       125 2.84653E-07-1.27567E-03 1.75091E-04
 -1       126 2.87027E-05-1.13932E-03 1.61852E-04
 -1       127-4.55713E-08-9.76638E-04 2.90588E-04
 -1       128 1.09014E-05-7.41458E-04 3.49286E-04
 -1       129-1.16908E-08-6.94920E-04 3.49225E-04
 -1       130-1.07606E-05-7.41560E-04 3.49398E-04
 -1       131 9.28696E-09-2.96796E-04 2.12829E-04
 -1       153-2.33246E-05-1.45595E-03 7.73251E-05
 -1       154-2.21587E-05-1.16854E-03-2.31454E-06
 -1       155 2.41489E-05-1.48477E-03-7.89562E-05
 -1       156-1.56787E-05-1.00985E-03-7.63257E-06
 -1       157 4.99161E-06-6.31078E-04 1.43116E-04
 -1       158 1.07320E-05-6.69312E-04-9.84879E-07
 -1       159-5.49997E-06-6.24773E-04-1.42921E-04
 -1       160 4.25631E-06-2.62166E-04 9.28618E-07
 -1       182-4.30342E-05-1.08672E-03-1.65004E-04
 -1       183-2.84753E-07-1.36267E-03-1.72792E-04
 -1       184 4.19034E-05-1.08557E-03-1.63826E-04
 -1       185 4.54767E-08-1.00886E-03-2.79295E-04
 -1       186 8.93706E-06-7.55543E-04-3.53628E-04
 -1       187 1.17109E-08-6.74015E-04-3.54701E-04
 -1       188-9.07808E-06-7.55442E-04-3.53516E-04
 -1       189-9.26442E-09-2.87287E-04-2.14660E-04
 -1       211-2.53079E-05-1.48364E-03-7.77712E-05
 -1       212 2.21588E-05-1.16797E-03-2.31476E-06
 -1       213 2.44829E-05-1.45482E-03 7.61405E-05
 -1       214 1.56787E-05-1.00995E-03-7.63249E-06
 -1       215 5.39796E-06-6.24631E-04-1.42811E-04
 -1       216-1.07321E-05-6.69332E-04-9.84853E-07
 -1       217-4.88971E-06-6.30936E-04 1.43006E-04
 -1       218-4.25634E-06-2.62147E-04 9.28570E-07
 -1       250 2.60297E-07-1.34200E-03 6.11529E-05
 -1       251 5.23224E-06-9.63413E-04 9.59499E-06
 -1       252-3.45435E-11-1.05831E-03 3.10607E-06
 -1       253-5.23229E-06-9.63936E-04 9.59512E-06
 -1       254-2.60409E-07-1.38293E-03-8.48071E-05
 -1       255-5.42758E-11-1.04768E-03-6.24870E-07
 -1       256-3.96822E-08-6.16308E-04 1.56670E-04
 -1       257-3.84608E-06-6.88266E-04-1.88447E-06
 -1       258 2.57148E-11-6.29457E-04-1.03206E-06
 -1       259 3.84612E-06-6.88188E-04-1.88448E-06
 -1       260 3.97242E-08-6.06096E-04-1.54402E-04
 -1       261-6.50301E-12-2.76504E-04-1.35893E-06
 -3
    1PSTEP                         4           4           1          
  100CL  104 2.00000E-02          81                     1    4           1
 -4  DISP        4    1
 -5  D1          1    2    1    0
 -5  D2          1    2    2    0
 -5  D3          1    2    3    0
 -5  ALL         1    2    0    0    1ALL
 -1         5 0.00000E+00 0.00000E+00 0.00000E+00
 -1         6 0.00000E+00 0.00000E+00 0.00000E+00
 -1         7 0.00000E+00 0.00000E+00 0.00000E+00
 -1         8 0.00000E+00 0.00000E+00 0.00000E+00
 -1        21 0.00000E+00 0.00000E+00 0.00000E+00
 -1        22 0.00000E+00 0.00000E+00 0.00000E+00
 -1        23 0.00000E+00 0.00000E+00 0.00000E+00
 -1        24 0.00000E+00 0.00000E+00 0.00000E+00
 -1        25 0.00000E+00 0.00000E+00 0.00000E+00
 -1        26 0.00000E+00 0.00000E+00 0.00000E+00
 -1        27 0.00000E+00 0.00000E+00 0.00000E+00
 -1        28 0.00000E+00 0.00000E+00 0.00000E+00
 -1        29 0.00000E+00 0.00000E+00 0.00000E+00
 -1        30 0.00000E+00 0.00000E+00 0.00000E+00
 -1        31 0.00000E+00 0.00000E+00 0.00000E+00
 -1        32 0.00000E+00 0.00000E+00 0.00000E+00
 -1        44-5.16578E-05 8.80714E-04-1.18940E-04
 -1        45-9.39486E-06 6.71699E-04-2.10793E-04
 -1        46 2.07198E-05 5.30799E-04-2.30656E-04
 -1        47-2.81617E-05 2.19711E-04-1.52934E-04
 -1        48 2.82151E-05 2.19765E-04-1.53100E-04
 -1        49-2.11567E-05 5.30357E-04-2.30796E-04
 -1        50 9.79870E-06 6.72115E-04-2.09418E-04
 -1        51 4.86478E-05 8.77667E-04-1.13941E-04
 -1        74 4.75665E-05 9.36053E-04 1.21326E-04
 -1        75-6.73092E-06 6.99448E-04 2.08601E-04
 -1        76-9.98613E-06 5.12989E-04 2.29720E-04
 -1        77 3.22379E-05 2.10663E-04 1.53436E-04
 -1        89-4.45598E-05 9.33009E-04 1.16331E-04
 -1        90 6.32672E-06 6.99863E-04 2.07227E-04
 -1        91 1.04223E-05 5.12548E-04 2.29860E-04
 -1        92-3.22912E-05 2.10717E-04 1.53602E-04
 -1        98 0.00000E+00 0.00000E+00 0.00000E+00
 -1        99 0.00000E+00 0.00000E+00 0.00000E+00
 -1       100 0.00000E+00 0.00000E+00 0.00000E+00
 -1       101 0.00000E+00 0.00000E+00 0.00000E+00
 -1       102 0.00000E+00 0.00000E+00 0.00000E+00
 -1       124 2.72488E-05 8.07825E-04-9.98691E-05
 -1       125-4.04459E-07 8.73140E-04-1.11866E-04
 -1       126-2.89112E-05 8.09562E-04-1.01620E-04
 -1       127 6.37556E-08 7.05423E-04-1.87715E-04
 -1       128-1.20843E-05 5.34278E-04-2.41666E-04
 -1       129 1.89858E-08 5.01271E-04-2.41095E-04
 -1       130 1.18726E-05 5.34436E-04-2.41832E-04
 -1       131-1.46857E-08 2.24017E-04-1.55939E-04
 -1       153 2.07930E-05 1.00593E-03-4.64824E-05
 -1       154 4.38549E-06 8.24262E-04-3.90111E-06
 -1       155-2.10481E-05 1.01903E-03 4.98582E-05
 -1       156 8.12697E-06 7.25956E-04 1.01552E-06
 -1       157-2.74968E-06 4.71561E-04-9.95899E-05
 -1       158-5.94910E-06 4.91974E-04 7.51551E-07
 -1       159 2.93530E-06 4.66193E-04 9.78569E-05
 -1       160-1.94248E-06 1.98102E-04 2.58871E-07
 -1       182 3.73535E-05 7.84201E-04 1.03024E-04
 -1       183 4.03856E-07 9.37874E-04 1.19928E-04
 -1       184-3.56931E-05 7.82465E-04 1.01275E-04
 -1       185-6.40413E-08 7.20151E-04 1.87052E-04
 -1       186-9.01403E-06 5.42266E-04 2.44357E-04
 -1       187-1.91592E-08 4.92438E-04 2.42356E-04
 -1       188 9.22516E-06 5.42108E-04 2.44191E-04
 -1       189 1.46792E-08 2.18269E-04 1.54932E-04
 -1       211 2.27596E-05 1.01736E-03 4.81298E-05
 -1       212-4.38544E-06 8.23462E-04-3.90176E-06
 -1       213-2.25057E-05 1.00426E-03-4.47535E-05
 -1       214-8.12740E-06 7.26074E-04 1.01566E-06
 -1       215-2.77878E-06 4.65985E-04 9.76865E-05
 -1       216 5.94913E-06 4.92024E-04 7.51725E-07
 -1       217 2.59274E-06 4.71353E-04-9.94190E-05
 -1       218 1.94242E-06 1.98072E-04 2.58841E-07
 -1       250-3.77771E-07 9.23231E-04-4.89231E-05
 -1       251 1.95666E-06 6.94307E-04-4.23152E-06
 -1       252-1.55135E-10 7.66401E-04-1.60097E-06
 -1       253-1.95687E-06 6.95054E-04-4.23126E-06
 -1       254 3.77183E-07 9.57308E-04 5.45173E-05
 -1       255-1.70307E-10 7.48082E-04 1.27012E-07
 -1       256 5.98898E-08 4.57903E-04-1.05792E-04
 -1       257 1.93878E-06 5.05917E-04 1.29166E-07
 -1       258-1.97817E-11 4.68368E-04 8.11870E-08
 -1       259-1.93877E-06 5.05792E-04 1.29101E-07
 -1       260-5.99561E-08 4.52875E-04 1.06090E-04
 -1       261-3.38009E-11 2.06040E-04 3.39424E-07
 -3
    1PSTEP                         5           5           1          
  100CL  105 2.50000E-02          81                     1    5           1
 -4  DISP        4    1
 -5  D1          1    2    1    0
 -5  D2          1    2    2    0
 -5  D3          1    2    3    0
 -5  ALL         1    2    0    0    1ALL
 -1         5 0.00000E+00 0.00000E+00 0.00000E+00
 -1         6 0.00000E+00 0.00000E+00 0.00000E+00
 -1         7 0.00000E+00 0.00000E+00 0.00000E+00
 -1         8 0.00000E+00 0.00000E+00 0.00000E+00
 -1        21 0.00000E+00 0.00000E+00 0.00000E+00
 -1        22 0.00000E+00 0.00000E+00 0.00000E+00
 -1        23 0.00000E+00 0.00000E+00 0.00000E+00
 -1        24 0.00000E+00 0.00000E+00 0.00000E+00
 -1        25 0.00000E+00 0.00000E+00 0.00000E+00
 -1        26 0.00000E+00 0.00000E+00 0.00000E+00
 -1        27 0.00000E+00 0.00000E+00 0.00000E+00
 -1        28 0.00000E+00 0.00000E+00 0.00000E+00
 -1        29 0.00000E+00 0.00000E+00 0.00000E+00
 -1        30 0.00000E+00 0.00000E+00 0.00000E+00
 -1        31 0.00000E+00 0.00000E+00 0.00000E+00
 -1        32 0.00000E+00 0.00000E+00 0.00000E+00
 -1        44 8.38024E-05-6.86280E-04 1.01430E-04
 -1        45 1.43253E-05-5.21108E-04 1.78899E-04
 -1        46-1.54577E-05-4.23236E-04 1.90762E-04
 -1        47 2.04112E-05-1.69341E-04 1.18952E-04
 -1        48-2.04155E-05-1.69341E-04 1.18956E-04
 -1        49 1.54880E-05-4.23224E-04 1.90766E-04
 -1        50-1.43648E-05-5.21103E-04 1.78783E-04
 -1        51-8.35183E-05-6.86127E-04 1.01051E-04
 -1        74-5.88750E-05-7.66067E-04-1.04240E-04
 -1        75 5.10175E-07-5.46937E-04-1.76557E-04
 -1        76 6.00447E-06-4.07137E-04-1.88952E-04
 -1        77-2.46449E-05-1.59990E-04-1.19285E-04
 -1        89 5.85771E-05-7.65899E-04-1.03839E-04
 -1        90-4.72544E-07-5.46936E-04-1.76437E-04
 -1        91-6.03796E-06-4.07120E-04-1.88957E-04
 -1        92 2.46496E-05-1.59990E-04-1.19289E-04
 -1        98 0.00000E+00 0.00000E+00 0.00000E+00
 -1        99 0.00000E+00 0.00000E+00 0.00000E+00
 -1       100 0.00000E+00 0.00000E+00 0.00000E+00
 -1       101 0.00000E+00 0.00000E+00 0.00000E+00
 -1       102 0.00000E+00 0.00000E+00 0.00000E+00
 -1       124-4.71022E-05-6.45255E-04 8.44605E-05
 -1       125 5.18423E-08-7.21224E-04 1.05312E-04
 -1       126 4.72725E-05-6.45343E-04 8.45864E-05
 -1       127-6.05553E-09-5.60118E-04 1.58601E-04
 -1       128 9.51844E-06-4.25014E-04 1.98967E-04
 -1       129-5.54415E-09-3.93844E-04 1.95457E-04
 -1       130-9.50736E-06-4.25016E-04 1.98985E-04
 -1       131 1.31364E-10-1.71412E-04 1.22467E-04
 -1       153-9.48382E-06-8.01750E-04 4.08507E-05
 -1       154-1.46579E-05-6.19935E-04-3.58209E-06
 -1       155 1.23259E-05-8.22358E-04-3.91455E-05
 -1       156-8.66103E-06-5.78051E-04-3.94191E-06
 -1       157 4.78677E-06-3.60856E-04 8.16359E-05
 -1       158 5.46400E-06-3.75854E-04-5.93985E-07
 -1       159-5.45283E-06-3.57794E-04-8.23424E-05
 -1       160 2.61960E-06-1.54333E-04 7.00776E-07
 -1       182-4.96305E-05-6.19747E-04-8.97558E-05
 -1       183-5.45990E-08-7.68776E-04-9.98392E-05
 -1       184 4.94518E-05-6.19649E-04-8.96210E-05
 -1       185 4.86257E-09-5.77558E-04-1.52522E-04
 -1       186 8.57490E-06-4.32603E-04-1.98677E-04
 -1       187 4.64980E-09-3.80987E-04-1.96423E-04
 -1       188-8.58869E-06-4.32599E-04-1.98658E-04
 -1       189-1.28546E-10-1.66339E-04-1.22961E-04
 -1       211-1.25075E-05-8.22224E-04-3.89404E-05
 -1       212 1.46593E-05-6.19799E-04-3.58551E-06
 -1       213 9.66039E-06-8.01622E-04 4.06475E-05
 -1       214 8.65910E-06-5.78096E-04-3.94128E-06
 -1       215 5.44372E-06-3.57769E-04-8.23391E-05
 -1       216-5.46391E-06-3.75822E-04-5.93233E-07
 -1       217-4.77932E-06-3.60833E-04 8.16348E-05
 -1       218-2.61999E-06-1.54333E-04 7.00640E-07
 -1       250 3.82616E-08-7.74105E-04 4.22318E-05
 -1       251 3.61275E-06-5.37715E-04 2.79463E-06
 -1       252-8.70316E-10-6.35279E-04 9.25461E-09
 -1       253-3.61353E-06-5.37823E-04 2.79563E-06
 -1       254-4.10816E-08-7.95615E-04-4.68950E-05
 -1       255-7.10000E-10-5.95253E-04-9.36762E-07
 -1       256-6.54504E-09-3.55316E-04 8.60689E-05
 -1       257-1.73336E-06-3.94160E-04-5.97828E-07
 -1       258-1.71052E-10-3.66406E-04-2.17094E-08
 -1       259 1.73337E-06-3.94166E-04-5.98004E-07
 -1       260 6.09016E-09-3.49222E-04-8.53609E-05
 -1       261-1.55261E-10-1.56927E-04-2.92267E-07
 -3
    1PSTEP                         6           6           1          
  100CL  106 3.00000E-02          81                     1    6           1
 -4  DISP        4    1
 -5  D1          1    2    1    0
 -5  D2          1    2    2    0
 -5  D3          1    2    3    0
 -5  ALL         1    2    0    0    1ALL
 -1         5 0.00000E+00 0.00000E+00 0.00000E+00
 -1         6 0.00000E+00 0.00000E+00 0.00000E+00
 -1         7 0.00000E+00 0.00000E+00 0.00000E+00
 -1         8 0.00000E+00 0.00000E+00 0.00000E+00
 -1        21 0.00000E+00 0.00000E+00 0.00000E+00
 -1        22 0.00000E+00 0.00000E+00 0.00000E+00
 -1        23 0.00000E+00 0.00000E+00 0.00000E+00
 -1        24 0.00000E+00 0.00000E+00 0.00000E+00
 -1        25 0.00000E+00 0.00000E+00 0.00000E+00
 -1        26 0.00000E+00 0.00000E+00 0.00000E+00
 -1        27 0.00000E+00 0.00000E+00 0.00000E+00
 -1        28 0.00000E+00 0.00000E+00 0.00000E+00
 -1        29 0.00000E+00 0.00000E+00 0.00000E+00
 -1        30 0.00000E+00 0.00000E+00 0.00000E+00
 -1        31 0.00000E+00 0.00000E+00 0.00000E+00
 -1        32 0.00000E+00 0.00000E+00 0.00000E+00
 -1        44-5.76157E-06 5.07105E-04-6.83363E-05
 -1        45-5.31092E-06 3.76486E-04-1.18278E-04
 -1        46 1.16169E-05 2.91016E-04-1.28233E-04
 -1        47-1.66769E-05 1.20848E-04-8.56327E-05