    1C
    1UUSER                                                              
    1UDATE              11.july.2018                                    
    1UTIME              14:59:16                                        
    1UHOST                                                              
    1UPGM               CalculiX                                        
    1UVERSION           Version 2.13                             
    1UCOMPILETIME       jue jun 14 00:40:39 CEST 2018                    
    1UDIR                                                               
    1UDBN                                                               
    1UMAT    1EL                                                        
    2C                            81                                     1
 -1         5 0.00000E+00 0.00000E+00 8.00000E+00
 -1         6 1.00000E+00 0.00000E+00 8.00000E+00
 -1         7 1.00000E+00 1.00000E+00 8.00000E+00
 -1         8 0.00000E+00 1.00000E+00 8.00000E+00
 -1        21 2.50000E-01 0.00000E+00 8.00000E+00
 -1        22 5.00000E-01 0.00000E+00 8.00000E+00
 -1        23 7.50000E-01 0.00000E+00 8.00000E+00
 -1        24 1.00000E+00 2.50000E-01 8.00000E+00
 -1        25 1.00000E+00 5.00000E-01 8.00000E+00
 -1        26 1.00000E+00 7.50000E-01 8.00000E+00
 -1        27 7.50000E-01 1.00000E+00 8.00000E+00
 -1        28 5.00000E-01 1.00000E+00 8.00000E+00
 -1        29 2.50000E-01 1.00000E+00 8.00000E+00
 -1        30 0.00000E+00 7.50000E-01 8.00000E+00
 -1        31 0.00000E+00 5.00000E-01 8.00000E+00
 -1        32 0.00000E+00 2.50000E-01 8.00000E+00
 -1        44 1.00000E+00 0.00000E+00 6.00000E+00
 -1        45 1.00000E+00 0.00000E+00 6.50000E+00
 -1        46 1.00000E+00 0.00000E+00 7.00000E+00
 -1        47 1.00000E+00 0.00000E+00 7.50000E+00
 -1        48 0.00000E+00 0.00000E+00 7.50000E+00
 -1        49 0.00000E+00 0.00000E+00 7.00000E+00
 -1        50 0.00000E+00 0.00000E+00 6.50000E+00
 -1        51 0.00000E+00 0.00000E+00 6.00000E+00
 -1        74 1.00000E+00 1.00000E+00 6.00000E+00
 -1        75 1.00000E+00 1.00000E+00 6.50000E+00
 -1        76 1.00000E+00 1.00000E+00 7.00000E+00
 -1        77 1.00000E+00 1.00000E+00 7.50000E+00
 -1        89 0.00000E+00 1.00000E+00 6.00000E+00
 -1        90 0.00000E+00 1.00000E+00 6.50000E+00
 -1        91 0.00000E+00 1.00000E+00 7.00000E+00
 -1        92 0.00000E+00 1.00000E+00 7.50000E+00
 -1        98 5.00000E-01 2.50000E-01 8.00000E+00
 -1        99 2.50000E-01 5.00000E-01 8.00000E+00
 -1       100 5.00000E-01 5.00000E-01 8.00000E+00
 -1       101 7.50000E-01 5.00000E-01 8.00000E+00
 -1       102 5.00000E-01 7.50000E-01 8.00000E+00
 -1       124 2.50000E-01 0.00000E+00 6.00000E+00
 -1       125 5.00000E-01 0.00000E+00 6.00000E+00
 -1       126 7.50000E-01 0.00000E+00 6.00000E+00
 -1       127 5.00000E-01 0.00000E+00 6.50000E+00
 -1       128 2.50000E-01 0.00000E+00 7.00000E+00
 -1       129 5.00000E-01 0.00000E+00 7.00000E+00
 -1       130 7.50000E-01 0.00000E+00 7.00000E+00
 -1       131 5.00000E-01 0.00000E+00 7.50000E+00
 -1       153 1.00000E+00 2.50000E-01 6.00000E+00
 -1       154 1.00000E+00 5.00000E-01 6.00000E+00
 -1       155 1.00000E+00 7.50000E-01 6.00000E+00
 -1       156 1.00000E+00 5.00000E-01 6.50000E+00
 -1       157 1.00000E+00 2.50000E-01 7.00000E+00
 -1       158 1.00000E+00 5.00000E-01 7.00000E+00
 -1       159 1.00000E+00 7.50000E-01 7.00000E+00
 -1       160 1.00000E+00 5.00000E-01 7.50000E+00
 -1       182 7.50000E-01 1.00000E+00 6.00000E+00
 -1       183 5.00000E-01 1.00000E+00 6.00000E+00
 -1       184 2.50000E-01 1.00000E+00 6.00000E+00
 -1       185 5.00000E-01 1.00000E+00 6.50000E+00
 -1       186 7.50000E-01 1.00000E+00 7.00000E+00
 -1       187 5.00000E-01 1.00000E+00 7.00000E+00
 -1       188 2.50000E-01 1.00000E+00 7.00000E+00
 -1       189 5.00000E-01 1.00000E+00 7.50000E+00
 -1       211 0.00000E+00 7.50000E-01 6.00000E+00
 -1       212 0.00000E+00 5.00000E-01 6.00000E+00
 -1       213 0.00000E+00 2.50000E-01 6.00000E+00
 -1       214 0.00000E+00 5.00000E-01 6.50000E+00
 -1       215 0.00000E+00 7.50000E-01 7.00000E+00
 -1       216 0.00000E+00 5.00000E-01 7.00000E+00
 -1       217 0.00000E+00 2.50000E-01 7.00000E+00
 -1       218 0.00000E+00 5.00000E-01 7.50000E+00
 -1       250 5.00000E-01 2.50000E-01 6.00000E+00
 -1       251 2.50000E-01 5.00000E-01 6.00000E+00
 -1       252 5.00000E-01 5.00000E-01 6.00000E+00
 -1       253 7.50000E-01 5.00000E-01 6.00000E+00
 -1       254 5.00000E-01 7.50000E-01 6.00000E+00
 -1       255 5.00000E-01 5.00000E-01 6.50000E+00
 -1       256 5.00000E-01 2.50000E-01 7.00000E+00
 -1       257 2.50000E-01 5.00000E-01 7.00000E+00
 -1       258 5.00000E-01 5.00000E-01 7.00000E+00
 -1       259 7.50000E-01 5.00000E-01 7.00000E+00
 -1       260 5.00000E-01 7.50000E-01 7.00000E+00
 -1       261 5.00000E-01 5.00000E-01 7.50000E+00
 -3
    3C                             8                                     1
 -1        25    4    0    1
 -2        51       125       252       212        49       129       258       216       124       250
 -2       251       213        50       127       255       214       128       256       257       217
 -1        26    4    0    1
 -2       125        44       154       252       129        46       158       258       126       153
 -2       253       250       127        45       156       255       130       157       259       256
 -1        27    4    0    1
 -2       212       252       183        89       216       258       187        91       251       254
 -2       184       211       214       255       185        90       257       260       188       215
 -1        28    4    0    1
 -2       252       154        74       183       258       158        76       187       253       155
 -2       182       254       255       156        75       185       259       159       186       260
 -1        29    4    0    1
 -2        49       129       258       216         5        22       100        31       128       256
 -2       257       217        48       131       261       218        21        98        99        32
 -1        30    4    0    1
 -2       129        46       158       258        22         6        25       100       130       157
 -2       259       256       131        47       160       261        23        24       101        98
 -1        31    4    0    1
 -2       216       258       187        91        31       100        28         8       257       260
 -2       188       215       218       261       189        92        99       102        29        30
 -1        32    4    0    1
 -2       258       158        76       187       100        25         7        28       259       159
 -2       186       260       261       160        77       189       101        26        27       102
 -3
    1PSTEP                         1           1           1          
  100CL  101 5.00000E-03          81                     1    1           1
 -4  DISP        4    1
 -5  D1          1    2    1    0
 -5  D2          1    2    2    0
 -5  D3          1    2    3    0
 -5  ALL         1    2    0    0    1ALL
 -1         5 0.00000E+00 0.00000E+00 0.00000E+00
 -1         6 0.00000E+00 0.00000E+00 0.00000E+00
 -1         7 0.00000E+00 0.00000E+00 0.00000E+00
 -1         8 0.00000E+00 0.00000E+00 0.00000E+00
 -1        21 0.00000E+00 0.00000E+00 0.00000E+00
 -1        22 0.00000E+00 0.00000E+00 0.00000E+00
 -1        23 0.00000E+00 0.00000E+00 0.00000E+00
 -1        24 0.00000E+00 0.00000E+00 0.00000E+00
 -1        25 0.00000E+00 0.00000E+00 0.00000E+00
 -1        26 0.00000E+00 0.00000E+00 0.00000E+00
 -1        27 0.00000E+00 0.00000E+00 0.00000E+00
 -1        28 0.00000E+00 0.00000E+00 0.00000E+00
 -1        29 0.00000E+00 0.00000E+00 0.00000E+00
 -1        30 0.00000E+00 0.00000E+00 0.00000E+00
 -1        31 0.00000E+00 0.00000E+00 0.00000E+00
 -1        32 0.00000E+00 0.00000E+00 0.00000E+00
 -1        44 9.02766E-05-2.95359E-03 3.36820E-04
 -1        45 1.89127E-05-2.24863E-03 6.89748E-04
 -1        46-5.68010E-05-1.68944E-03 7.71892E-04
 -1        47 9.36063E-05-6.85043E-04 4.96277E-04
 -1        48-9.36150E-05-6.85052E-04 4.96303E-04
 -1        49 5.68726E-05-1.68937E-03 7.71914E-04
 -1        50-1.89784E-05-2.24869E-03 6.89513E-04
 -1        51-8.97662E-05-2.95308E-03 3.35974E-04
 -1        74-2.51455E-05-3.24018E-03-3.83452E-04
 -1        75 2.95627E-05-2.35198E-03-7.20977E-04
 -1        76 1.58149E-05-1.67534E-03-7.89300E-04
 -1        77-1.24350E-04-6.30222E-04-5.07804E-04
 -1        89 2.46358E-05-3.23967E-03-3.82607E-04
 -1        90-2.94966E-05-2.35205E-03-7.20741E-04
 -1        91-1.58863E-05-1.67526E-03-7.89322E-04
 -1        92 1.24359E-04-6.30231E-04-5.07830E-04
 -1        98 0.00000E+00 0.00000E+00 0.00000E+00
 -1        99 0.00000E+00 0.00000E+00 0.00000E+00
 -1       100 0.00000E+00 0.00000E+00 0.00000E+00
 -1       101 0.00000E+00 0.00000E+00 0.00000E+00
 -1       102 0.00000E+00 0.00000E+00 0.00000E+00
 -1       124-1.27549E-05-2.65585E-03 3.10159E-04
 -1       125 7.56969E-08-2.95932E-03 3.55050E-04
 -1       126 1.30435E-05-2.65615E-03 3.10461E-04
 -1       127-1.26449E-08-2.29822E-03 6.57967E-04
 -1       128 2.42718E-05-1.73749E-03 8.04533E-04
 -1       129-1.92031E-09-1.63444E-03 8.03763E-04
 -1       130-2.42358E-05-1.73751E-03 8.04561E-04
 -1       131 2.24748E-09-6.93114E-04 4.85559E-04
 -1       153-7.27678E-05-3.45032E-03 1.42962E-04
 -1       154-4.53130E-05-2.80643E-03-2.43669E-05
 -1       155 7.72186E-05-3.52650E-03-1.87951E-04
 -1       156-2.66579E-05-2.39052E-03-4.17779E-05
 -1       157 1.20371E-05-1.49496E-03 3.15127E-04
 -1       158 3.24662E-05-1.59906E-03-1.03700E-05
 -1       159 1.76773E-05-1.51270E-03-3.32364E-04
 -1       160 1.52869E-05-6.15746E-04 7.46979E-06
 -1       182-3.93981E-05-2.54394E-03-3.54378E-04
 -1       183-7.53602E-08-3.20691E-03-3.92826E-04
 -1       184 3.91103E-05-2.54365E-03-3.54076E-04
 -1       185 1.27853E-08-2.43195E-03-6.59342E-04
 -1       186 2.05011E-05-1.88167E-03-8.40905E-04
 -1       187 2.04356E-09-1.76241E-03-8.46888E-04
 -1       188-2.05369E-05-1.88164E-03-8.40877E-04
 -1       189-2.21261E-09-7.21209E-04-5.07492E-04
 -1       211-7.75111E-05-3.52621E-03-1.87648E-04
 -1       212 4.53136E-05-2.80628E-03-2.43670E-05
 -1       213 7.30606E-05-3.45003E-03 1.42659E-04
 -1       214 2.66582E-05-2.39054E-03-4.17780E-05
 -1       215-1.77021E-05-1.51266E-03-3.32336E-04
 -1       216-3.24663E-05-1.59907E-03-1.03701E-05
 -1       217-1.20121E-05-1.49492E-03 3.15100E-04
 -1       218-1.52869E-05-6.15742E-04 7.46973E-06
 -1       250 6.81174E-08-3.09490E-03 9.86375E-05
 -1       251 7.30487E-06-2.25877E-03 1.19563E-05
 -1       252 9.29409E-11-2.40059E-03-7.25557E-06
 -1       253-7.30466E-06-2.25891E-03 1.19563E-05
 -1       254-6.78097E-08-3.22133E-03-2.24628E-04
 -1       255 7.11072E-11-2.48715E-03-2.29070E-05
 -1       256-9.58464E-09-1.44680E-03 3.53175E-04
 -1       257-1.75763E-05-1.63684E-03-1.65844E-05
 -1       258 4.78467E-11-1.49166E-03-1.50366E-05
 -1       259 1.75764E-05-1.63682E-03-1.65844E-05
 -1       260 9.67821E-09-1.50558E-03-3.66194E-04
 -1       261 1.36203E-11-6.63779E-04 9.84408E-07
 -3
    1PSTEP                         2           2           1          
  100CL  102 1.00000E-02          81                     1    2           1
 -4  DISP        4    1
 -5  D1          1    2    1    0
 -5  D2          1    2    2    0
 -5  D3          1    2    3    0
 -5  ALL         1    2    0    0    1ALL
 -1         5 0.00000E+00 0.00000E+00 0.00000E+00
 -1         6 0.00000E+00 0.00000E+00 0.00000E+00
 -1         7 0.00000E+00 0.00000E+00 0.00000E+00
 -1         8 0.00000E+00 0.00000E+00 0.00000E+00
 -1        21 0.00000E+00 0.00000E+00 0.00000E+00
 -1        22 0.00000E+00 0.00000E+00 0.00000E+00
 -1        23 0.00000E+00 0.00000E+00 0.00000E+00
 -1        24 0.00000E+00 0.00000E+00 0.00000E+00
 -1        25 0.00000E+00 0.00000E+00 0.00000E+00
 -1        26 0.00000E+00 0.00000E+00 0.00000E+00
 -1        27 0.00000E+00 0.00000E+00 0.00000E+00
 -1        28 0.00000E+00 0.00000E+00 0.00000E+00
 -1        29 0.00000E+00 0.00000E+00 0.00000E+00
 -1        30 0.00000E+00 0.00000E+00 0.00000E+00
 -1        31 0.00000E+00 0.00000E+00 0.00000E+00
 -1        32 0.00000E+00 0.00000E+00 0.00000E+00
 -1        44-5.77810E-05 1.65923E-03-2.38092E-04
 -1        45-1.85306E-05 1.23775E-03-4.10768E-04
 -1        46 3.00097E-05 9.23705E-04-4.40029E-04
 -1        47-5.32845E-05 3.73926E-04-2.81443E-04
 -1        48 5.33052E-05 3.74021E-04-2.81524E-04
 -1        49-2.94323E-05 9.23708E-04-4.40252E-04
 -1        50 1.86618E-05 1.23804E-03-4.11166E-04
 -1        51 6.04633E-05 1.65840E-03-2.38965E-04
 -1        74 4.03482E-05 1.76380E-03 2.37362E-04
 -1        75-6.54719E-06 1.28200E-03 4.07008E-04
 -1        76-1.49593E-05 8.97737E-04 4.36306E-04
 -1        77 6.00401E-05 3.58872E-04 2.81727E-04
 -1        89-4.13566E-05 1.76167E-03 2.36740E-04
 -1        90 8.04432E-06 1.28246E-03 4.06470E-04
 -1        91 1.48612E-05 8.97543E-04 4.35951E-04
 -1        92-5.98762E-05 3.58844E-04 2.81468E-04
 -1        98 0.00000E+00 0.00000E+00 0.00000E+00
 -1        99 0.00000E+00 0.00000E+00 0.00000E+00
 -1       100 0.00000E+00 0.00000E+00 0.00000E+00
 -1       101 0.00000E+00 0.00000E+00 0.00000E+00
 -1       102 0.00000E+00 0.00000E+00 0.00000E+00
 -1       124 9.46067E-06 1.49506E-03-2.26492E-04
 -1       125 1.86174E-07 1.67289E-03-2.33425E-04
 -1       126-8.00508E-06 1.49578E-03-2.27091E-04
 -1       127 6.01630E-07 1.27571E-03-3.90410E-04
 -1       128-1.12625E-05 9.57028E-04-4.60426E-04
 -1       129-1.43926E-07 8.98303E-04-4.66215E-04
 -1       130 1.14100E-05 9.56974E-04-4.60097E-04
 -1       131 2.87688E-08 3.78880E-04-2.76967E-04
 -1       153 5.59773E-05 1.94731E-03-1.07392E-04
 -1       154 2.39184E-05 1.61776E-03-6.45482E-07
 -1       155-5.73964E-05 1.96579E-03 1.05996E-04
 -1       156 1.75656E-05 1.31829E-03 6.84035E-06
 -1       157-7.39706E-06 8.15050E-04-1.86469E-04
 -1       158-1.09376E-05 8.68011E-04 2.35553E-06
 -1       159 8.62974E-06 8.10869E-04 1.86124E-04
 -1       160-4.81248E-06 3.28987E-04-7.17902E-07
 -1       182 2.78817E-05 1.44486E-03 2.27002E-04
 -1       183 1.13587E-06 1.74843E-03 2.38146E-04
 -1       184-2.71673E-05 1.44345E-03 2.25171E-04
 -1       185-1.82395E-08 1.30244E-03 3.78609E-04
 -1       186-1.06877E-05 9.68918E-04 4.61042E-04
 -1       187 5.39327E-07 8.79399E-04 4.65098E-04
 -1       188 1.11588E-05 9.68873E-04 4.61196E-04
 -1       189 1.05453E-08 3.71328E-04 2.76874E-04
 -1       211 5.76463E-05 1.96475E-03 1.06039E-04
 -1       212-2.20617E-05 1.61756E-03-1.63481E-06
 -1       213-5.34932E-05 1.94687E-03-1.08678E-04
 -1       214-1.70207E-05 1.31804E-03 6.30078E-06
 -1       215-8.40432E-06 8.10951E-04 1.85606E-04
 -1       216 1.14263E-05 8.68403E-04 2.08968E-06
 -1       217 7.89537E-06 8.15237E-04-1.86625E-04
 -1       218 4.90522E-06 3.29010E-04-7.87251E-07
 -1       250 2.66819E-07 1.74640E-03-9.79192E-05
 -1       251-6.05441E-06 1.26614E-03-4.44012E-06
 -1       252 5.22158E-07 1.35907E-03 8.94946E-08
 -1       253 7.46803E-06 1.26612E-03-4.33386E-06
 -1       254 9.54402E-07 1.77560E-03 1.09102E-04
 -1       255 4.24527E-07 1.37136E-03 1.82160E-06
 -1       256-5.85537E-09 7.88175E-04-2.06901E-04
 -1       257 4.52845E-06 8.91951E-04 4.77219E-07
 -1       258 8.65105E-08 8.00392E-04-1.27087E-08
 -1       259-4.20285E-06 8.91784E-04 6.96114E-07
 -1       260 2.87819E-07 7.80678E-04 2.05230E-04
 -1       261 5.34867E-08 3.54561E-04 6.16830E-07
 -3
    1PSTEP                         3           3           1          
  100CL  103 1.50000E-02          81                     1    3           1
 -4  DISP        4    1
 -5  D1          1    2    1    0
 -5  D2          1    2    2    0
 -5  D3          1    2    3    0
 -5  ALL         1    2    0    0    1ALL
 -1         5 0.00000E+00 0.00000E+00 0.00000E+00
 -1         6 0.00000E+00 0.00000E+00 0.00000E+00
 -1         7 0.00000E+00 0.00000E+00 0.00000E+00
 -1         8 0.00000E+00 0.00000E+00 0.00000E+00
 -1        21 0.00000E+00 0.00000E+00 0.00000E+00
 -1        22 0.00000E+00 0.00000E+00 0.00000E+00
 -1        23 0.00000E+00 0.00000E+00 0.00000E+00
 -1        24 0.00000E+00 0.00000E+00 0.00000E+00
 -1        25 0.00000E+00 0.00000E+00 0.00000E+00
 -1        26 0.00000E+00 0.00000E+00 0.00000E+00
 -1        27 0.00000E+00 0.00000E+00 0.00000E+00
 -1        28 0.00000E+00 0.00000E+00 0.00000E+00
 -1        29 0.00000E+00 0.00000E+00 0.00000E+00
 -1        30 0.00000E+00 0.00000E+00 0.00000E+00
 -1        31 0.00000E+00 0.00000E+00 0.00000E+00
 -1        32 0.00000E+00 0.00000E+00 0.00000E+00
 -1        44 3.45385E-05-1.22946E-03 1.63671E-04
 -1        45 7.60865E-06-9.35468E-04 2.94487E-04
 -1        46-2.14358E-05-7.00395E-04 3.24014E-04
 -1        47 4.09990E-05-2.88781E-04 2.11527E-04
 -1        48-4.07292E-05-2.88762E-04 2.11484E-04
 -1        49 2.20835E-05-6.99798E-04 3.23490E-04
 -1        50-5.66182E-06-9.36347E-04 2.93827E-04
 -1        51-3.42831E-05-1.22655E-03 1.63134E-04
 -1        74-2.21101E-05-1.31829E-03-1.65214E-04
 -1        75 1.18785E-05-9.68450E-04-2.92470E-04
 -1        76 1.33109E-05-6.82308E-04-3.19172E-04
 -1        77-4.64916E-05-2.75526E-04-2.10755E-04
 -1        89 2.34563E-05-1.31592E-03-1.63967E-04
 -1        90-9.41955E-06-9.70108E-04-2.93643E-04
 -1        91-1.34625E-05-6.81277E-04-3.20351E-04
 -1        92 4.68495E-05-2.75835E-04-2.11668E-04
 -1        98 0.00000E+00 0.00000E+00 0.00000E+00
 -1        99 0.00000E+00 0.00000E+00 0.00000E+00
 -1       100 0.00000E+00 0.00000E+00 0.00000E+00
 -1       101 0.00000E+00 0.00000E+00 0.00000E+00
 -1       102 0.00000E+00 0.00000E+00 0.00000E+00
 -1       124 2.35529E-06-1.10735E-03 1.48918E-04
 -1       125 4.95768E-07-1.24542E-03 1.59516E-04
 -1       126-1.42819E-06-1.10851E-03 1.49388E-04
 -1       127 9.71062E-07-9.57194E-04 2.84864E-04
 -1       128 7.43375E-06-7.26043E-04 3.38832E-04
 -1       129 3.45036E-07-6.83884E-04 3.40955E-04
 -1       130-6.83236E-06-7.26421E-04 3.38982E-04
 -1       131 9.46772E-08-2.93558E-04 2.07866E-04
 -1       153-3.11457E-05-1.42841E-03 7.36042E-05
 -1       154-2.43631E-05-1.17487E-03 4.88223E-06
 -1       155 3.68755E-05-1.43953E-03-6.75676E-05
 -1       156-1.46780E-05-9.91305E-04-8.50562E-06
 -1       157 2.99177E-06-6.23036E-04 1.37492E-04
 -1       158 1.07819E-05-6.63485E-04-7.35934E-07
 -1       159-2.45188E-06-6.22518E-04-1.35579E-04
 -1       160 4.63540E-06-2.57532E-04 1.97259E-06
 -1       182-2.06186E-05-1.06455E-03-1.50330E-04
 -1       183 2.83252E-06-1.29730E-03-1.71544E-04
 -1       184 2.42007E-05-1.06317E-03-1.51449E-04
 -1       185 5.14545E-07-9.80613E-04-2.67059E-04
 -1       186 1.06547E-05-7.37279E-04-3.41414E-04
 -1       187 5.35442E-07-6.67493E-04-3.43036E-04
 -1       188-1.02271E-05-7.36835E-04-3.41655E-04
 -1       189-6.90779E-09-2.87368E-04-2.10724E-04
 -1       211-3.19235E-05-1.44005E-03-7.17232E-05
 -1       212 3.14401E-05-1.17793E-03 2.04681E-07
 -1       213 3.44613E-05-1.42842E-03 7.36910E-05
 -1       214 1.55498E-05-9.90013E-04-1.01736E-05
 -1       215 3.10799E-06-6.22591E-04-1.35955E-04
 -1       216-9.07751E-06-6.64703E-04-1.30316E-06
 -1       217-1.76569E-06-6.23355E-04 1.36399E-04
 -1       218-4.50808E-06-2.57434E-04 1.81626E-06
 -1       250 8.18047E-07-1.29913E-03 5.68641E-05
 -1       251 1.46268E-05-9.48729E-04 1.40827E-05
 -1       252 1.23147E-06-1.01268E-03 2.99601E-06
 -1       253-1.01744E-05-9.46837E-04 1.44789E-05
 -1       254 2.02898E-06-1.31284E-03-8.99144E-05
 -1       255 1.21311E-06-1.02349E-03-7.52926E-07
 -1       256 2.38023E-07-6.07032E-04 1.53112E-04
 -1       257-4.02009E-06-6.79935E-04-2.66336E-06
 -1       258 8.60637E-08-6.19448E-04-4.15154E-07
 -1       259 4.98024E-06-6.79404E-04-1.93437E-06
 -1       260 3.28891E-07-6.01587E-04-1.47978E-04
 -1       261 1.23749E-07-2.75611E-04-8.98003E-07
 -3
    1PSTEP                         4           4           1          
  100CL  104 2.00000E-02          81                     1    4           1
 -4  DISP        4    1
 -5  D1          1    2    1    0
 -5  D2          1    2    2    0
 -5  D3          1    2    3    0
 -5  ALL         1    2    0    0    1ALL
 -1         5 0.00000E+00 0.00000E+00 0.00000E+00
 -1         6 0.00000E+00 0.00000E+00 0.00000E+00
 -1         7 0.00000E+00 0.00000E+00 0.00000E+00
 -1         8 0.00000E+00 0.00000E+00 0.00000E+00
 -1        21 0.00000E+00 0.00000E+00 0.00000E+00
 -1        22 0.00000E+00 0.00000E+00 0.00000E+00
 -1        23 0.00000E+00 0.00000E+00 0.00000E+00
 -1        24 0.00000E+00 0.00000E+00 0.00000E+00
 -1        25 0.00000E+00 0.00000E+00 0.00000E+00
 -1        26 0.00000E+00 0.00000E+00 0.00000E+00
 -1        27 0.00000E+00 0.00000E+00 0.00000E+00
 -1        28 0.00000E+00 0.00000E+00 0.00000E+00
 -1        29 0.00000E+00 0.00000E+00 0.00000E+00
 -1        30 0.00000E+00 0.00000E+00 0.00000E+00
 -1        31 0.00000E+00 0.00000E+00 0.00000E+00
 -1        32 0.00000E+00 0.00000E+00 0.00000E+00
 -1        44-2.39344E-05 9.93572E-04-1.36172E-04
 -1        45-9.25055E-06 7.49597E-04-2.39804E-04
 -1        46 1.83720E-05 5.57772E-04-2.66218E-04
 -1        47-3.26532E-05 2.26870E-04-1.70002E-04
 -1        48 3.28426E-05 2.26853E-04-1.70235E-04
 -1        49-1.86121E-05 5.58077E-04-2.66504E-04
 -1        50 1.09018E-05 7.48833E-04-2.40216E-04
 -1        51 2.17150E-05 9.96494E-04-1.36610E-04
 -1        74 1.34411E-05 1.08291E-03 1.40646E-04
 -1        75-1.22896E-05 7.82031E-04 2.44467E-04
 -1        76-5.52457E-06 5.39259E-04 2.59192E-04
 -1        77 3.84678E-05 2.14900E-04 1.68141E-04
 -1        89-1.02982E-05 1.08494E-03 1.40214E-04
 -1        90 1.20147E-05 7.81442E-04 2.44266E-04
 -1        91 6.17545E-06 5.39406E-04 2.59032E-04
 -1        92-3.84765E-05 2.14790E-04 1.68077E-04
 -1        98 0.00000E+00 0.00000E+00 0.00000E+00
 -1        99 0.00000E+00 0.00000E+00 0.00000E+00
 -1       100 0.00000E+00 0.00000E+00 0.00000E+00
 -1       101 0.00000E+00 0.00000E+00 0.00000E+00
 -1       102 0.00000E+00 0.00000E+00 0.00000E+00
 -1       124-6.52476E-06 8.96637E-04-1.32073E-04
 -1       125 1.10908E-06 1.00957E-03-1.33340E-04
 -1       126 6.65011E-06 8.94643E-04-1.29792E-04
 -1       127-2.31472E-07 7.65606E-04-2.36152E-04
 -1       128-5.27716E-06 5.80903E-04-2.75157E-04
 -1       129 6.92353E-07 5.46606E-04-2.77534E-04
 -1       130 5.82694E-06 5.80838E-04-2.75466E-04
 -1       131 1.71081E-08 2.31347E-04-1.66928E-04
 -1       153 2.32212E-05 1.15439E-03-6.36739E-05
 -1       154 1.99471E-05 9.39810E-04 2.71579E-06
 -1       155-2.51919E-05 1.17425E-03 5.81564E-05
 -1       156 1.59815E-05 7.93867E-04 5.29990E-06
 -1       157-1.57759E-06 4.92830E-04-1.11138E-04
 -1       158-1.00077E-05 5.25953E-04 2.16491E-06
 -1       159 2.49072E-06 4.90044E-04 1.11791E-04
 -1       160-4.19102E-06 2.02916E-04-8.10172E-07
 -1       182 1.72922E-05 8.53211E-04 1.26965E-04
 -1       183-6.90359E-08 1.06494E-03 1.46773E-04
 -1       184-1.59006E-05 8.54633E-04 1.28236E-04
 -1       185 6.31179E-07 7.90355E-04 2.22185E-04
 -1       186-6.33808E-06 5.90392E-04 2.77723E-04
 -1       187-2.84748E-07 5.28694E-04 2.78297E-04
 -1       188 6.39096E-06 5.90398E-04 2.77325E-04
 -1       189 3.34007E-08 2.24741E-04 1.67746E-04
 -1       211 2.74154E-05 1.17514E-03 5.68584E-05
 -1       212-1.92774E-05 9.39816E-04 2.49792E-06
 -1       213-2.43416E-05 1.15569E-03-6.27008E-05
 -1       214-1.53754E-05 7.94356E-04 5.01580E-06
 -1       215-2.08670E-06 4.89793E-04 1.11825E-04
 -1       216 1.02667E-05 5.25266E-04 1.93291E-06
 -1       217 1.64450E-06 4.92662E-04-1.11706E-04
 -1       218 4.30427E-06 2.02893E-04-9.19119E-07
 -1       250 9.78703E-07 1.05639E-03-5.20855E-05
 -1       251-4.23982E-06 7.62467E-04-4.52253E-06
 -1       252 4.87971E-07 8.15539E-04-9.86056E-06
 -1       253 5.07713E-06 7.62667E-04-4.32411E-06
 -1       254 7.65280E-08 1.07208E-03 7.11010E-05
 -1       255 2.55623E-07 8.19927E-04 2.95528E-07
 -1       256 3.86384E-07 4.81359E-04-1.24382E-04
 -1       257 3.89395E-06 5.38560E-04 3.50478E-07
 -1       258 1.58662E-07 4.91846E-04 9.29812E-07
 -1       259-3.61295E-06 5.38857E-04 4.43365E-07
 -1       260-3.06495E-08 4.75159E-04 1.20886E-04
 -1       261 4.33649E-08 2.17387E-04 1.44690E-06
 -3
    1PSTEP                         5           5           1          
  100CL  105 2.50000E-02          81                     1    5           1
 -4  DISP        4    1
 -5  D1          1    2    1    0
 -5  D2          1    2    2    0
 -5  D3          1    2    3    0
 -5  ALL         1    2    0    0    1ALL
 -1         5 0.00000E+00 0.00000E+00 0.00000E+00
 -1         6 0.00000E+00 0.00000E+00 0.00000E+00
 -1         7 0.00000E+00 0.00000E+00 0.00000E+00
 -1         8 0.00000E+00 0.00000E+00 0.00000E+00
 -1        21 0.00000E+00 0.00000E+00 0.00000E+00
 -1        22 0.00000E+00 0.00000E+00 0.00000E+00
 -1        23 0.00000E+00 0.00000E+00 0.00000E+00
 -1        24 0.00000E+00 0.00000E+00 0.00000E+00
 -1        25 0.00000E+00 0.00000E+00 0.00000E+00
 -1        26 0.00000E+00 0.00000E+00 0.00000E+00
 -1        27 0.00000E+00 0.00000E+00 0.00000E+00
 -1        28 0.00000E+00 0.00000E+00 0.00000E+00
 -1        29 0.00000E+00 0.00000E+00 0.00000E+00
 -1        30 0.00000E+00 0.00000E+00 0.00000E+00
 -1        31 0.00000E+00 0.00000E+00 0.00000E+00
 -1        32 0.00000E+00 0.00000E+00 0.00000E+00
 -1        44 2.12833E-05-7.39772E-04 1.02009E-04
 -1        45 2.96254E-06-5.57150E-04 1.80331E-04
 -1        46-1.08744E-05-4.15962E-04 1.93764E-04
 -1        47 2.44282E-05-1.70597E-04 1.25693E-04
 -1        48-2.43482E-05-1.70728E-04 1.25799E-04
 -1        49 1.06363E-05-4.15261E-04 1.94011E-04
 -1        50-2.29883E-06-5.58593E-04 1.80432E-04
 -1        51-2.45992E-05-7.35615E-04 1.01078E-04
 -1        74-1.16251E-05-7.90179E-04-9.74951E-05
 -1        75 4.83785E-06-5.79566E-04-1.73098E-04
 -1        76 8.09331E-06-4.03943E-04-1.94906E-04
 -1        77-2.76532E-05-1.62249E-04-1.27256E-04
 -1        89 1.21193E-05-7.87140E-04-9.59859E-05
 -1        90-5.43181E-06-5.80366E-04-1.72539E-04
 -1        91-8.05340E-06-4.03488E-04-1.94855E-04
 -1        92 2.76215E-05-1.62354E-04-1.27403E-04
 -1        98 0.00000E+00 0.00000E+00 0.00000E+00
 -1        99 0.00000E+00 0.00000E+00 0.00000E+00
 -1       100 0.00000E+00 0.00000E+00 0.00000E+00
 -1       101 0.00000E+00 0.00000E+00 0.00000E+00
 -1       102 0.00000E+00 0.00000E+00 0.00000E+00
 -1       124-1.41148E-06-6.60997E-04 9.08297E-05
 -1       125-1.16965E-08-7.48119E-04 9.88733E-05
 -1       126-1.48396E-07-6.63731E-04 9.29411E-05
 -1       127-5.78070E-07-5.71296E-04 1.72534E-04
 -1       128 3.56216E-06-4.31973E-04 2.03964E-04
 -1       129 5.53752E-07-4.05877E-04 2.05245E-04
 -1       130-3.13903E-06-4.32200E-04 2.03471E-04
 -1       131 2.85456E-08-1.73018E-04 1.23389E-04
 -1       153-2.08061E-05-8.63268E-04 4.42485E-05
 -1       154-2.20295E-05-7.06437E-04 3.34501E-06
 -1       155 1.94555E-05-8.63429E-04-4.58382E-05
 -1       156-7.98221E-06-5.90090E-04-8.17136E-06
 -1       157 1.84958E-06-3.68462E-04 8.30859E-05
 -1       158 5.18055E-06-3.94010E-04 3.60046E-08
 -1       159-2.23851E-06-3.68904E-04-8.12514E-05
 -1       160 2.78523E-06-1.51658E-04 1.58144E-06
 -1       182-1.11747E-05-6.33705E-04-9.44560E-05
 -1       183-2.30445E-07-7.74315E-04-9.50880E-05
 -1       184 1.11040E-05-6.32024E-04-9.32618E-05
 -1       185-1.64898E-08-5.83899E-04-1.61153E-04
 -1       186 5.98692E-06-4.38498E-04-2.04383E-04
 -1       187-1.75983E-07-3.96780E-04-2.06065E-04
 -1       188-6.11638E-06-4.38295E-04-2.04453E-04
 -1       189-2.16916E-09-1.69812E-04-1.25656E-04
 -1       211-2.04397E-05-8.62551E-04-4.58523E-05
 -1       212 1.89416E-05-7.07470E-04 5.51547E-06
 -1       213 1.70208E-05-8.61957E-04 4.71434E-05
 -1       214 8.25066E-06-5.89209E-04-7.55821E-06
 -1       215 1.95974E-06-3.69186E-04-8.07875E-05
 -1       216-5.67358E-06-3.95057E-04 8.47495E-08
 -1       217-2.13361E-06-3.68607E-04 8.27162E-05
 -1       218-2.68301E-06-1.51634E-04 1.51422E-06
 -1       250 1.77986E-07-7.78991E-04 3.10396E-05
 -1       251 1.09697E-05-5.66147E-04 1.17425E-05
 -1       252-4.79919E-08-6.03235E-04-7.23559E-06
 -1       253-1.23864E-05-5.65384E-04 1.18462E-05
 -1       254-2.35861E-07-7.86845E-04-5.13847E-05
 -1       255-3.59995E-07-6.11183E-04-1.41094E-06
 -1       256 3.25967E-07-3.58813E-04 9.25553E-05
 -1       257-3.00850E-06-4.03760E-04-2.08291E-06
 -1       258 2.08458E-07-3.66213E-04 5.77049E-07
 -1       259 2.95474E-06-4.03288E-04-2.38122E-06
 -1       260 3.63266E-08-3.55477E-04-8.93680E-05
 -1       261 6.43683E-09-1.62837E-04 1.18214E-07
 -3
    1PSTEP                         6           6           1          
  100CL  106 3.00000E-02          81                     1    6           1
 -4  DISP        4    1
 -5  D1          1    2    1    0
 -5  D2          1    2    2    0
 -5  D3          1    2    3    0
 -5  ALL         1    2    0    0    1ALL
 -1         5 0.00000E+00 0.00000E+00 0.00000E+00
 -1         6 0.00000E+00 0.00000E+00 0.00000E+00
 -1         7 0.00000E+00 0.00000E+00 0.00000E+00
 -1         8 0.00000E+00 0.00000E+00 0.00000E+00
 -1        21 0.00000E+00 0.00000E+00 0.00000E+00
 -1        22 0.00000E+00 0.00000E+00 0.00000E+00
 -1        23 0.00000E+00 0.00000E+00 0.00000E+00
 -1        24 0.00000E+00 0.00000E+00 0.00000E+00
 -1        25 0.00000E+00 0.00000E+00 0.00000E+00
 -1        26 0.00000E+00 0.00000E+00 0.00000E+00
 -1        27 0.00000E+00 0.00000E+00 0.00000E+00
 -1        28 0.00000E+00 0.00000E+00 0.00000E+00
 -1        29 0.00000E+00 0.00000E+00 0.00000E+00
 -1        30 0.00000E+00 0.00000E+00 0.00000E+00
 -1        31 0.00000E+00 0.00000E+00 0.00000E+00
 -1        32 0.00000E+00 0.00000E+00 0.00000E+00
 -1        44-8.43829E-06 5.61303E-04-7.82925E-05
 -1        45-7.83660E-06 4.19264E-04-1.34837E-04
 -1        46 1.13183E-05 3.11685E-04-1.52280E-04
 -1        47-1.87640E-05 1.24642E-04-9.51798E-05