
 displacements (vx,vy,vz) for set NALL and time  0.5000000E-02

         5  0.000000E+00  0.000000E+00  0.000000E+00
         6  0.000000E+00  0.000000E+00  0.000000E+00
         7  0.000000E+00  0.000000E+00  0.000000E+00
         8  0.000000E+00  0.000000E+00  0.000000E+00
        21  0.000000E+00  0.000000E+00  0.000000E+00
        22  0.000000E+00  0.000000E+00  0.000000E+00
        23  0.000000E+00  0.000000E+00  0.000000E+00
        24  0.000000E+00  0.000000E+00  0.000000E+00
        25  0.000000E+00  0.000000E+00  0.000000E+00
        26  0.000000E+00  0.000000E+00  0.000000E+00
        27  0.000000E+00  0.000000E+00  0.000000E+00
        28  0.000000E+00  0.000000E+00  0.000000E+00
        29  0.000000E+00  0.000000E+00  0.000000E+00
        30  0.000000E+00  0.000000E+00  0.000000E+00
        31  0.000000E+00  0.000000E+00  0.000000E+00
        32  0.000000E+00  0.000000E+00  0.000000E+00
        44  5.481766E-05 -2.163872E-03  1.583726E-04
        45 -2.860329E-05 -1.800727E-03  4.152216E-04
        46 -6.416975E-05 -1.409930E-03  5.173157E-04
        47  7.871981E-05 -6.196294E-04  3.902500E-04
        48 -7.871990E-05 -6.196295E-04  3.902503E-04
        49  6.417076E-05 -1.409929E-03  5.173160E-04
        50  2.860260E-05 -1.800728E-03  4.152179E-04
        51 -5.480986E-05 -2.163865E-03  1.583598E-04
        74 -1.079003E-05 -2.309982E-03 -1.947709E-04
        75  4.664409E-05 -1.850821E-03 -4.461458E-04
        76  4.168861E-05 -1.427782E-03 -5.392730E-04
        77 -1.005409E-04 -5.840044E-04 -4.014725E-04
        89  1.078274E-05 -2.309975E-03 -1.947582E-04
        90 -4.664308E-05 -1.850822E-03 -4.461422E-04
        91 -4.168951E-05 -1.427781E-03 -5.392733E-04
        92  1.005410E-04 -5.840046E-04 -4.014728E-04
        98  0.000000E+00  0.000000E+00  0.000000E+00
        99  0.000000E+00  0.000000E+00  0.000000E+00
       100  0.000000E+00  0.000000E+00  0.000000E+00
       101  0.000000E+00  0.000000E+00  0.000000E+00
       102  0.000000E+00  0.000000E+00  0.000000E+00
       124 -1.894402E-05 -2.022464E-03  9.337746E-05
       125  1.571643E-09 -2.163805E-03  2.096217E-04
       126  1.894890E-05 -2.022468E-03  9.338235E-05
       127 -2.298529E-10 -1.808407E-03  3.858376E-04
       128  3.212517E-05 -1.418708E-03  5.662788E-04
       129  8.698129E-11 -1.364773E-03  5.519275E-04
       130 -3.212456E-05 -1.418708E-03  5.662792E-04
       131  3.886525E-11 -6.317109E-04  3.890586E-04
       153 -4.707750E-05 -2.412703E-03  3.824397E-05
       154 -1.191222E-05 -2.079940E-03 -1.951144E-05
       155  4.953549E-05 -2.463056E-03 -8.415253E-05
       156 -5.169241E-06 -1.905177E-03 -2.929815E-05
       157 -5.416366E-06 -1.318301E-03  2.088317E-04
       158  1.833118E-05 -1.376619E-03 -8.489799E-06
       159  3.671703E-05 -1.340586E-03 -2.248455E-04
       160  9.158941E-06 -5.678881E-04  5.669614E-06
       182 -1.717636E-05 -1.970019E-03 -1.282718E-04
       183 -1.317229E-09 -2.311852E-03 -2.410478E-04
       184  1.717209E-05 -1.970014E-03 -1.282669E-04
       185  3.646071E-10 -1.907233E-03 -4.061946E-04
       186  2.786303E-05 -1.546466E-03 -5.995376E-04
       187  1.803343E-12 -1.516716E-03 -5.910946E-04
       188 -2.786352E-05 -1.546465E-03 -5.995372E-04
       189 -6.334438E-12 -6.698448E-04 -4.079721E-04
       211 -4.953979E-05 -2.463051E-03 -8.414767E-05
       212  1.191256E-05 -2.079937E-03 -1.951150E-05
       213  4.708208E-05 -2.412699E-03  3.823902E-05
       214  5.169462E-06 -1.905178E-03 -2.929820E-05
       215 -3.671725E-05 -1.340585E-03 -2.248452E-04
       216 -1.833117E-05 -1.376619E-03 -8.489882E-06
       217  5.416741E-06 -1.318300E-03  2.088313E-04
       218 -9.158936E-06 -5.678880E-04  5.669563E-06
       250  1.333540E-09 -2.200440E-03  4.016862E-05
       251 -3.880069E-06 -1.767982E-03  8.233385E-07
       252  1.036957E-10 -1.827536E-03 -9.955067E-06
       253  3.880272E-06 -1.767984E-03  8.233828E-07
       254 -1.083396E-09 -2.290013E-03 -1.359287E-04
       255  6.487036E-11 -1.947056E-03 -2.058970E-05
       256 -7.551071E-11 -1.277112E-03  2.390083E-04
       257 -1.192794E-05 -1.389622E-03 -1.384894E-05
       258  4.444019E-11 -1.307812E-03 -1.383184E-05
       259  1.192801E-05 -1.389621E-03 -1.384890E-05
       260  1.565085E-10 -1.344991E-03 -2.550295E-04
       261  9.953712E-12 -6.043277E-04  2.293721E-06

 forces (fx,fy,fz) for set NALL and time  0.5000000E-02

         5  1.052812E+00 -7.799563E-01 -1.985522E+00
         6 -1.052816E+00 -7.799518E-01 -1.985536E+00
         7  1.403489E+00  1.271971E-01  1.977056E+00
         8 -1.403485E+00  1.271937E-01  1.977042E+00
        21  4.503027E-01  6.380441E+00 -1.421337E+01
        22  4.616904E-06  1.605298E-02 -3.855525E+00
        23 -4.502994E-01  6.380456E+00 -1.421336E+01
        24 -2.762123E+00  6.702260E+00 -5.993674E+00
        25  2.698855E-01 -3.715823E+00 -5.026881E-02
        26  2.526744E+00  6.468883E+00  6.165178E+00
        27  2.822367E-01  5.455501E+00  1.416382E+01
        28 -4.407068E-06  1.461442E+00  3.979700E+00
        29 -2.822396E-01  5.455482E+00  1.416383E+01
        30 -2.526726E+00  6.468886E+00  6.165187E+00
        31 -2.698869E-01 -3.715814E+00 -5.026831E-02
        32  2.762107E+00  6.702263E+00 -5.993682E+00
        44 -1.018564E+00  1.968729E+01  3.030239E+00
        45 -7.129980E-06 -6.080380E-01  1.525634E-01
        46  5.449752E-06  1.541473E+00 -4.634098E-01
        47 -1.910853E-06 -1.167011E+00  5.403038E-01
        48  2.088470E-06 -1.167010E+00  5.403044E-01
        49 -4.879207E-06  1.541474E+00 -4.634100E-01
        50  5.312344E-06 -6.080403E-01  1.525630E-01
        51  1.018596E+00  1.968733E+01  3.030194E+00
        74 -1.602380E-01  1.597290E+01 -2.491673E+00
        75  6.453363E-07 -6.081235E-01 -1.525356E-01
        76 -1.636972E-06  1.541534E+00  4.634018E-01
        77  4.013221E-06 -1.167024E+00 -5.403001E-01
        89  1.602135E-01  1.597292E+01 -2.491628E+00
        90 -3.467685E-06 -6.081198E-01 -1.525355E-01
        91  2.118533E-06  1.541534E+00  4.634020E-01
        92 -3.429233E-06 -1.167026E+00 -5.403000E-01
        98  3.393228E-06  1.190080E+01 -1.026793E+01
        99  2.914852E-01  1.437225E+00  1.668857E-01
       100 -9.447878E-07 -6.332116E+00  2.748816E-02
       101 -2.914840E-01  1.437218E+00  1.668855E-01
       102 -4.213888E-06  1.264857E+01  1.022449E+01
       124 -3.099765E+00  7.188895E+00 -5.409232E+00
       125  1.530229E-05  3.402053E+01  7.093101E+00
       126  3.099759E+00  7.188868E+00 -5.409205E+00
       127  4.398413E-07 -1.216077E+00  3.051178E-01
       128  4.555574E-06 -2.615777E+00  9.358650E-01
       129 -1.977983E-07  3.082946E+00 -9.268166E-01
       130 -5.015040E-06 -2.615776E+00  9.358641E-01
       131  5.295606E-07 -2.334021E+00  1.080606E+00
       153  1.713134E-01 -5.288547E+01 -4.945629E+00
       154 -9.624499E-01  4.050251E+01  4.678701E-01
       155  1.861249E+00 -5.217044E+01  3.676831E+00
       156 -1.171862E-05 -1.216153E+00 -2.479043E-05
       157 -7.605588E-06 -2.615785E+00  7.018891E-01
       158  5.804471E-06  3.083006E+00  1.159819E-05
       159 -1.406884E-07 -2.615848E+00 -7.018921E-01
       160 -1.207306E-06 -2.334038E+00 -3.363770E-06
       182 -3.028608E+00  1.412945E+01  5.453095E+00
       183 -1.419275E-05  2.824408E+01 -5.443636E+00
       184  3.028616E+00  1.412950E+01  5.453122E+00
       185  1.291350E-06 -6.742573E+00 -3.050654E-01
       186  2.519494E-06 -8.142179E+00 -9.358385E-01
       187 -4.799364E-07 -2.443243E+00  9.268048E-01
       188 -2.877053E-06 -8.142177E+00 -9.358382E-01
       189  4.008576E-07 -7.860373E+00 -1.080595E+00
       211 -1.861294E+00 -5.217044E+01  3.676859E+00
       212  9.624639E-01  4.050254E+01  4.678704E-01
       213 -1.712866E-01 -5.288549E+01 -4.945657E+00
       214  9.293405E-06 -1.216154E+00 -2.298151E-05
       215 -1.518590E-06 -2.615846E+00 -7.018923E-01
       216 -4.644890E-06  3.083006E+00  1.076146E-05
       217  6.234897E-06 -2.615787E+00  7.018893E-01
       218  5.964847E-07 -2.334038E+00 -4.638763E-06
       250  1.388065E-05 -8.840115E+01 -9.897656E+00
       251 -5.481638E-01  3.260611E+01  1.480312E+00
       252  7.520096E-06  7.757422E+01  1.658837E+00
       253  5.481505E-01  3.260609E+01  1.480314E+00
       254 -1.177251E-05 -9.212425E+01  3.497260E+00
       255  3.291447E-06 -2.432314E+00 -6.072809E-05
       256  8.448437E-07 -5.231571E+00  1.403768E+00
       257  7.241239E-06 -5.231633E+00 -2.668041E-05
       258 -6.528288E-07  6.166016E+00  2.392912E-05
       259 -6.921153E-06 -5.231632E+00 -2.695579E-05
       260  1.693371E-06 -5.231707E+00 -1.403780E+00
       261 -4.982045E-07 -4.668080E+00 -9.360948E-06

 displacements (vx,vy,vz) for set NALL and time  0.1000000E-01

         5  0.000000E+00  0.000000E+00  0.000000E+00
         6  0.000000E+00  0.000000E+00  0.000000E+00
         7  0.000000E+00  0.000000E+00  0.000000E+00
         8  0.000000E+00  0.000000E+00  0.000000E+00
        21  0.000000E+00  0.000000E+00  0.000000E+00
        22  0.000000E+00  0.000000E+00  0.000000E+00
        23  0.000000E+00  0.000000E+00  0.000000E+00
        24  0.000000E+00  0.000000E+00  0.000000E+00
        25  0.000000E+00  0.000000E+00  0.000000E+00
        26  0.000000E+00  0.000000E+00  0.000000E+00
        27  0.000000E+00  0.000000E+00  0.000000E+00
        28  0.000000E+00  0.000000E+00  0.000000E+00
        29  0.000000E+00  0.000000E+00  0.000000E+00
        30  0.000000E+00  0.000000E+00  0.000000E+00
        31  0.000000E+00  0.000000E+00  0.000000E+00
        32  0.000000E+00  0.000000E+00  0.000000E+00
        44 -8.674264E-05  1.032044E-03 -9.521343E-05
        45  6.478983E-06  8.666192E-04 -2.086691E-04
        46  3.768826E-05  7.306748E-04 -2.511929E-04
        47 -3.726388E-05  3.239680E-04 -1.941518E-04
        48  3.725684E-05  3.239610E-04 -1.941305E-04
        49 -3.763056E-05  7.307324E-04 -2.511749E-04
        50 -6.532522E-06  8.665660E-04 -2.088546E-04
        51  8.714768E-05  1.032448E-03 -9.588328E-05
        74  7.492875E-05  1.087335E-03  1.017947E-04
        75 -1.770206E-05  8.863215E-04  2.087326E-04
        76 -3.018049E-05  7.184079E-04  2.512333E-04
        77  4.081491E-05  3.170756E-04  1.949731E-04
        89 -7.533423E-05  1.087740E-03  1.024655E-04
        90  1.775560E-05  8.862680E-04  2.089182E-04
        91  3.012269E-05  7.184656E-04  2.512151E-04
        92 -4.080784E-05  3.170686E-04  1.949517E-04
        98  0.000000E+00  0.000000E+00  0.000000E+00
        99  0.000000E+00  0.000000E+00  0.000000E+00
       100  0.000000E+00  0.000000E+00  0.000000E+00
       101  0.000000E+00  0.000000E+00  0.000000E+00
       102  0.000000E+00  0.000000E+00  0.000000E+00
       124  5.656995E-05  9.964055E-04 -4.403585E-05
       125  5.705503E-08  1.046988E-03 -1.170136E-04
       126 -5.634382E-05  9.961745E-04 -4.379951E-05
       127 -9.191166E-09  9.058876E-04 -1.769533E-04
       128 -2.214656E-05  7.191445E-04 -2.798548E-04
       129 -2.254249E-09  6.849151E-04 -2.688699E-04
       130  2.217483E-05  7.191242E-04 -2.798324E-04
       131  1.858815E-09  3.320233E-04 -2.036666E-04
       153  2.149136E-05  1.127791E-03 -1.498660E-05
       154  7.746033E-06  9.535088E-04  3.165729E-07
       155 -1.847884E-05  1.145031E-03  2.131475E-05
       156  4.147404E-06  9.484181E-04  9.818788E-07
       157  4.047044E-06  6.731607E-04 -1.090708E-04
       158 -2.835217E-06  6.837560E-04  5.804301E-07
       159 -3.481735E-06  6.695054E-04  1.085268E-04
       160 -1.348564E-06  2.996315E-04  1.399489E-07
       182  5.723880E-05  9.835527E-04  5.136533E-05
       183 -5.711483E-08  1.098405E-03  1.267978E-04
       184 -5.746520E-05  9.837843E-04  5.160213E-05
       185  9.209726E-09  9.169698E-04  1.787342E-04
       186 -2.010119E-05  7.266654E-04  2.821456E-04
       187  2.202071E-09  6.794568E-04  2.710048E-04
       188  2.007281E-05  7.266859E-04  2.821679E-04
       189 -1.866806E-09  3.278224E-04  2.034114E-04
       211  1.824721E-05  1.145258E-03  2.155160E-05
       212 -7.745886E-06  9.536231E-04  3.162855E-07
       213 -2.125960E-05  1.128017E-03 -1.522359E-05
       214 -4.147461E-06  9.483995E-04  9.818384E-07
       215  3.461289E-06  6.695338E-04  1.085491E-04
       216  2.835272E-06  6.837517E-04  5.804560E-07
       217 -4.026639E-06  6.731890E-04 -1.090930E-04
       218  1.348562E-06  2.996352E-04  1.399373E-07
       250  5.220851E-08  1.087917E-03 -4.759448E-05
       251 -2.107449E-07  8.634212E-04 -4.131771E-06
       252  3.893875E-11  9.645495E-04 -2.191174E-06
       253  2.108576E-07  8.633166E-04 -4.131648E-06
       254 -5.224277E-08  1.116039E-03  5.287273E-05
       255 -5.751938E-12  9.529993E-04  3.126633E-07
       256 -7.908828E-09  6.579880E-04 -1.163724E-04
       257  5.068201E-07  6.998684E-04  8.134969E-07
       258  4.703174E-12  6.708619E-04  4.150965E-07
       259 -5.067887E-07  6.998842E-04  8.134888E-07
       260  7.904045E-09  6.543067E-04  1.175138E-04
       261 -7.295267E-12  3.051977E-04  2.796141E-08

 forces (fx,fy,fz) for set NALL and time  0.1000000E-01

         5 -5.726913E-01 -2.009661E-01  1.312229E+00
         6  5.723848E-01 -2.006605E-01  1.311370E+00
         7 -6.503124E-01 -4.139861E-01 -1.318660E+00
         8  6.506194E-01 -4.142934E-01 -1.319521E+00
        21 -4.384276E-01 -3.170975E+00  7.214099E+00
        22  2.818141E-04 -9.891236E-01  2.338135E+00
        23  4.385774E-01 -3.169963E+00  7.214644E+00
        24  1.191287E+00 -2.628928E+00  2.805607E+00
        25 -8.391373E-02  1.041759E+00  9.629368E-03
        26 -1.087186E+00 -2.543740E+00 -2.858103E+00
        27 -4.103527E-01 -2.849936E+00 -7.170203E+00
        28 -2.824325E-04 -1.281709E+00 -2.369912E+00
        29  4.102035E-01 -2.850948E+00 -7.169658E+00
        30  1.088200E+00 -2.543590E+00 -2.857558E+00
        31  8.391300E-02  1.042320E+00  9.627626E-03
        32 -1.192301E+00 -2.628778E+00  2.805065E+00
        44  6.736180E-01 -8.659601E+00 -1.860998E+00
        45  6.103517E-06  5.208355E-01 -1.306834E-01
        46 -4.669179E-06 -1.320401E+00  3.969496E-01
        47  1.642182E-06  9.996432E-01 -4.628157E-01
        48 -1.794325E-06  9.996421E-01 -4.628162E-01
        49  4.180459E-06 -1.320402E+00  3.969497E-01
        50 -4.546559E-06  5.208375E-01 -1.306830E-01
        51 -6.718734E-01 -8.657860E+00 -1.863912E+00
        74 -1.833473E-01 -7.064841E+00  1.804219E+00
        75 -5.473887E-07  5.209087E-01  1.306596E-01
        76  1.401145E-06 -1.320454E+00 -3.969427E-01
        77 -3.442648E-06  9.996540E-01  4.628125E-01
        89  1.815957E-01 -7.063088E+00  1.807139E+00
        90  2.964969E-06  5.209056E-01  1.306595E-01
        91 -1.813643E-06 -1.320453E+00 -3.969428E-01
        92  2.942413E-06  9.996559E-01  4.628125E-01
        98  3.765482E-04 -4.093179E+00  4.965287E+00
        99 -5.803435E-02 -9.939894E-01  6.860542E-04
       100 -6.499194E-07  1.848036E-01 -2.418947E-03
       101  5.803467E-02 -9.947405E-01  6.861288E-04
       102 -3.762261E-04 -4.219087E+00 -5.011477E+00
       124  3.484708E+00 -3.082495E+00  3.277978E+00
       125  7.232396E-04 -1.404603E+01 -3.809173E+00
       126 -3.485254E+00 -3.084280E+00  3.278576E+00
       127 -3.767613E-07  1.041672E+00 -2.613590E-01
       128 -3.902090E-06  2.240634E+00 -8.016472E-01
       129  1.694308E-07 -2.640803E+00  7.938965E-01
       130  4.295662E-06  2.240633E+00 -8.016465E-01
       131 -4.536132E-07  1.999285E+00 -9.256299E-01
       153  7.375815E-01  2.338691E+01  2.952737E+00
       154  4.284581E-01 -1.885234E+01 -6.146436E-02
       155 -1.439320E+00  2.264617E+01 -2.714405E+00
       156  1.003920E-05  1.041737E+00  2.122870E-05
       157  6.515201E-06  2.240640E+00 -6.012272E-01
       158 -4.973948E-06 -2.640854E+00 -9.929889E-06
       159  1.239381E-07  2.240694E+00  6.012297E-01
       160  1.035836E-06  1.999300E+00  2.881350E-06
       182  3.438654E+00 -5.388251E+00 -3.248108E+00
       183 -7.253036E-04 -1.159121E+01  3.776094E+00
       184 -3.438107E+00 -5.386470E+00 -3.247506E+00
       185 -1.106150E-06  1.069527E+00  2.613141E-01
       186 -2.155908E-06  2.268408E+00  8.016246E-01
       187  4.111060E-07 -2.613210E+00 -7.938864E-01
       188  2.462186E-06  2.268407E+00  8.016242E-01
       189 -3.433685E-07  2.027017E+00  9.256210E-01
       211  1.437539E+00  2.264562E+01 -2.713801E+00
       212 -4.284636E-01 -1.885089E+01 -6.146362E-02
       213 -7.357895E-01  2.338637E+01  2.952127E+00
       214 -7.961796E-06  1.041738E+00  1.967920E-05
       215  1.297374E-06  2.240692E+00  6.012299E-01
       216  3.980669E-06 -2.640854E+00 -9.213156E-06
       217 -5.341088E-06  2.240641E+00 -6.012274E-01
       218 -5.126164E-07  1.999300E+00  3.973489E-06
       250  2.531996E-04  3.695963E+01  3.973696E+00
       251  2.775770E-01 -1.458765E+01 -3.595113E-01
       252 -2.464108E-06 -3.064270E+01 -1.387864E-01
       253 -2.775716E-01 -1.458816E+01 -3.595067E-01
       254 -2.540162E-04  3.725021E+01 -3.293486E+00
       255 -2.819402E-06  2.083481E+00  5.200557E-05
       256 -7.236795E-07  4.481281E+00 -1.202446E+00
       257 -6.206469E-06  4.481334E+00  2.284752E-05
       258  5.592028E-07 -5.281712E+00 -2.048715E-05
       259  5.932288E-06  4.481334E+00  2.308340E-05
       260 -1.450516E-06  4.481397E+00  1.202456E+00
       261  4.267542E-07  3.998604E+00  8.018211E-06

 displacements (vx,vy,vz) for set NALL and time  0.1500000E-01

         5  0.000000E+00  0.000000E+00  0.000000E+00
         6  0.000000E+00  0.000000E+00  0.000000E+00
         7  0.000000E+00  0.000000E+00  0.000000E+00
         8  0.000000E+00  0.000000E+00  0.000000E+00
        21  0.000000E+00  0.000000E+00  0.000000E+00
        22  0.000000E+00  0.000000E+00  0.000000E+00
        23  0.000000E+00  0.000000E+00  0.000000E+00
        24  0.000000E+00  0.000000E+00  0.000000E+00
        25  0.000000E+00  0.000000E+00  0.000000E+00
        26  0.000000E+00  0.000000E+00  0.000000E+00
        27  0.000000E+00  0.000000E+00  0.000000E+00
        28  0.000000E+00  0.000000E+00  0.000000E+00
        29  0.000000E+00  0.000000E+00  0.000000E+00
        30  0.000000E+00  0.000000E+00  0.000000E+00
        31  0.000000E+00  0.000000E+00  0.000000E+00
        32  0.000000E+00  0.000000E+00  0.000000E+00
        44  4.567642E-05 -1.219683E-03  1.724915E-04
        45  9.434618E-06 -9.198614E-04  2.933552E-04
        46 -2.325610E-05 -6.989057E-04  3.203239E-04
        47  3.977734E-05 -2.878647E-04  2.093604E-04
        48 -3.977198E-05 -2.878593E-04  2.093440E-04
        49  2.321195E-05 -6.989496E-04  3.203101E-04
        50 -9.393717E-06 -9.198209E-04  2.934968E-04
        51 -4.598591E-05 -1.219991E-03  1.730028E-04
        74 -2.755501E-05 -1.309039E-03 -1.711741E-04
        75  1.115795E-05 -9.558787E-04 -2.886761E-04
        76  1.047532E-05 -6.765704E-04 -3.168531E-04
        77 -4.518567E-05 -2.747110E-04 -2.090109E-04
        89  2.786488E-05 -1.309348E-03 -1.716868E-04
        90 -1.119902E-05 -9.558376E-04 -2.888178E-04
        91 -1.043114E-05 -6.766146E-04 -3.168391E-04
        92  4.518022E-05 -2.747056E-04 -2.089946E-04
        98  0.000000E+00  0.000000E+00  0.000000E+00
        99  0.000000E+00  0.000000E+00  0.000000E+00
       100  0.000000E+00  0.000000E+00  0.000000E+00
       101  0.000000E+00  0.000000E+00  0.000000E+00
       102  0.000000E+00  0.000000E+00  0.000000E+00
       124 -1.270034E-05 -1.116468E-03  1.629720E-04
       125 -4.348261E-08 -1.235996E-03  1.733517E-04
       126  1.252766E-05 -1.116291E-03  1.627919E-04
       127  6.906591E-09 -9.430084E-04  2.776217E-04
       128  1.025766E-05 -7.194283E-04  3.337322E-04
       129  1.768501E-09 -6.800259E-04  3.351259E-04
       130 -1.027925E-05 -7.194128E-04  3.337150E-04
       131 -1.431145E-09 -2.925475E-04  2.064450E-04
       153 -3.132158E-05 -1.406683E-03  7.405831E-05
       154 -1.388035E-05 -1.164039E-03  2.311897E-06
       155  3.494381E-05 -1.426843E-03 -6.964764E-05
       156 -1.246576E-05 -9.807785E-04 -3.856464E-06
       157  3.794825E-06 -6.221561E-04  1.372423E-04
       158  8.791805E-06 -6.575280E-04 -1.075974E-07
       159 -3.628256E-06 -6.172486E-04 -1.352086E-04
       160  3.385759E-06 -2.563440E-04  9.979313E-07
       182 -2.338522E-05 -1.074386E-03 -1.605892E-04
       183  4.343678E-08 -1.299852E-03 -1.688506E-04
       184  2.355802E-05 -1.074563E-03 -1.607700E-04
       185 -7.036806E-09 -9.670041E-04 -2.671806E-04
       186  8.833179E-06 -7.292431E-04 -3.346352E-04
       187 -1.731951E-09 -6.633971E-04 -3.364462E-04
       188 -8.811536E-06 -7.292588E-04 -3.346522E-04
       189  1.422442E-09 -2.852236E-04 -2.064359E-04
       211 -3.476704E-05 -1.427016E-03 -6.982836E-05
       212  1.388005E-05 -1.164126E-03  2.312345E-06
       213  3.114434E-05 -1.406856E-03  7.423930E-05
       214  1.246575E-05 -9.807644E-04 -3.856377E-06
       215  3.643875E-06 -6.172704E-04 -1.352257E-04
       216 -8.791935E-06 -6.575247E-04 -1.075831E-07
       217 -3.810476E-06 -6.221777E-04  1.372593E-04
       218 -3.385779E-06 -2.563469E-04  9.979856E-07
       250 -3.985326E-08 -1.274951E-03  5.703336E-05
       251  2.673318E-06 -9.420319E-04  8.039997E-06
       252 -1.547714E-10 -1.004030E-03  2.595215E-06
       253 -2.673634E-06 -9.419522E-04  8.039778E-06
       254  3.974483E-08 -1.305169E-03 -6.886386E-05
       255 -3.525769E-11 -1.018686E-03  4.547819E-07
       256  6.034796E-09 -6.042032E-04  1.526101E-04
       257 -3.269054E-06 -6.706431E-04 -1.028251E-07
       258 -4.074555E-11 -6.103585E-04  5.436640E-07
       259  3.268953E-06 -6.706552E-04 -1.028324E-07
       260 -6.082341E-09 -5.960663E-04 -1.493058E-04
       261  5.982905E-12 -2.734461E-04 -6.041138E-07

 forces (fx,fy,fz) for set NALL and time  0.1500000E-01

         5  5.291497E-01 -8.105241E-01 -6.720522E-01
         6 -5.289153E-01 -8.107574E-01 -6.713954E-01
         7  6.232706E-01 -3.162478E-01  6.832289E-01
         8 -6.235061E-01 -3.160118E-01  6.838877E-01
        21  2.523989E-01  2.308638E+00 -7.010676E+00
        22 -2.156449E-04 -6.032873E-01 -1.335262E+00
        23 -2.525136E-01  2.307865E+00 -7.011093E+00
        24 -1.425231E+00  4.676154E+00 -3.358082E+00
        25  8.756957E-02 -2.513524E+00 -2.241108E-02
        26  1.139866E+00  4.317181E+00  3.404257E+00
        27  4.021348E-01  1.700171E+00  6.921615E+00
        28  2.161790E-04  1.018687E-01  1.364847E+00
        29 -4.020214E-01  1.700945E+00  6.921198E+00
        30 -1.140641E+00  4.317066E+00  3.403840E+00
        31 -8.756923E-02 -2.513953E+00 -2.240852E-02
        32  1.426007E+00  4.676040E+00 -3.357670E+00
        44 -4.785895E-01  1.499135E+01  7.469601E-01
        45 -4.847657E-06 -4.142317E-01  1.039354E-01
        46  3.715301E-06  1.050145E+00 -3.157029E-01
        47 -1.315567E-06 -7.950387E-01  3.680878E-01
        48  1.436571E-06 -7.950378E-01  3.680882E-01
        49 -3.326610E-06  1.050145E+00 -3.157030E-01
        50  3.609373E-06 -4.142333E-01  1.039351E-01
        51  4.772579E-01  1.499002E+01  7.491876E-01
        74 -9.924154E-02  1.157896E+01 -7.221699E-01
        75  4.264358E-07 -4.142900E-01 -1.039164E-01
        76 -1.113199E-06  1.050186E+00  3.156975E-01
        77  2.747062E-06 -7.950473E-01 -3.680852E-01
        89  1.005846E-01  1.157762E+01 -7.244063E-01
        90 -2.349192E-06 -4.142875E-01 -1.039164E-01
        91  1.441268E-06  1.050186E+00  3.156975E-01
        92 -2.349214E-06 -7.950488E-01 -3.680852E-01
        98 -2.887106E-04  8.264898E+00 -5.876070E+00
        99 -4.469098E-02 -1.271594E+00 -3.988822E-02
       100  7.974316E-07 -4.446696E+00 -7.834826E-02
       101  4.469109E-02 -1.271018E+00 -3.988780E-02
       102  2.889718E-04  8.013952E+00  5.999409E+00
       124 -1.594889E+00  5.912554E+00 -4.367216E-01
       125 -5.506823E-04  2.595996E+01  1.596341E+00
       126  1.595307E+00  5.913916E+00 -4.371706E-01
       127  2.996471E-07 -8.284640E-01  2.078646E-01
       128  3.103242E-06 -1.782026E+00  6.375681E-01
       129 -1.347518E-07  2.100289E+00 -6.314037E-01
       130 -3.416261E-06 -1.782025E+00  6.375675E-01
       131  3.607684E-07 -1.590077E+00  7.361743E-01
       153  1.565338E-01 -4.043673E+01 -1.302759E+00
       154 -4.696489E-01  3.002513E+01 -2.432787E-02
       155  1.672939E+00 -3.798168E+01  1.168479E+00
       156 -7.985808E-06 -8.285160E-01 -1.687468E-05
       157 -5.182198E-06 -1.782031E+00  4.781695E-01
       158  3.958504E-06  2.100330E+00  7.890556E-06
       159 -1.033977E-07 -1.782074E+00 -4.781715E-01
       160 -8.262677E-07 -1.590088E+00 -2.291610E-06
       182 -2.717902E+00  1.039128E+01  5.080246E-01
       183  5.550051E-04  2.040938E+01 -1.360602E+00
       184  2.717483E+00  1.038992E+01  5.075718E-01
       185  8.797458E-07 -8.300448E-01 -2.078289E-01
       186  1.711492E-06 -1.783542E+00 -6.375500E-01
       187 -3.269623E-07  2.098917E+00  6.313957E-01
       188 -1.955081E-06 -1.783541E+00 -6.375498E-01
       189  2.730892E-07 -1.591559E+00 -7.361672E-01
       211 -1.671582E+00 -3.798126E+01  1.168024E+00
       212  4.696597E-01  3.002403E+01 -2.432941E-02
       213 -1.579065E-01 -4.043632E+01 -1.302295E+00
       214  6.333604E-06 -8.285164E-01 -1.564234E-05
       215 -1.027002E-06 -1.782073E+00 -4.781717E-01
       216 -3.168527E-06  2.100330E+00  7.320522E-06
       217  4.248398E-06 -1.782032E+00  4.781696E-01
       218  4.101392E-07 -1.590088E+00 -3.160213E-06
       250 -1.915426E-04 -6.880070E+01 -3.822775E+00
       251  3.997371E-01  2.349008E+01  6.393901E-01
       252  5.524251E-06  5.671534E+01  1.754082E-01
       253 -3.997488E-01  2.349047E+01  6.393818E-01
       254  1.891925E-04 -6.666810E+01  2.371750E+00
       255  2.242335E-06 -1.657037E+00 -4.134279E-05
       256  5.755569E-07 -3.564063E+00  9.563321E-01
       257  4.941379E-06 -3.564105E+00 -1.816203E-05
       258 -4.447466E-07  4.200663E+00  1.627965E-05
       259 -4.723317E-06 -3.564105E+00 -1.834963E-05
       260  1.153630E-06 -3.564155E+00 -9.563403E-01
       261 -3.394073E-07 -3.180180E+00 -6.376741E-06

 displacements (vx,vy,vz) for set NALL and time  0.2000000E-01

         5  0.000000E+00  0.000000E+00  0.000000E+00
         6  0.000000E+00  0.000000E+00  0.000000E+00
         7  0.000000E+00  0.000000E+00  0.000000E+00
         8  0.000000E+00  0.000000E+00  0.000000E+00
        21  0.000000E+00  0.000000E+00  0.000000E+00
        22  0.000000E+00  0.000000E+00  0.000000E+00
        23  0.000000E+00  0.000000E+00  0.000000E+00
        24  0.000000E+00  0.000000E+00  0.000000E+00
        25  0.000000E+00  0.000000E+00  0.000000E+00
        26  0.000000E+00  0.000000E+00  0.000000E+00
        27  0.000000E+00  0.000000E+00  0.000000E+00
        28  0.000000E+00  0.000000E+00  0.000000E+00
        29  0.000000E+00  0.000000E+00  0.000000E+00
        30  0.000000E+00  0.000000E+00  0.000000E+00
        31  0.000000E+00  0.000000E+00  0.000000E+00
        32  0.000000E+00  0.000000E+00  0.000000E+00
        44 -7.503241E-05  7.566619E-04 -9.013098E-05
        45 -7.437562E-06  6.093095E-04 -1.768046E-04
        46  2.229402E-05  4.976655E-04 -2.006127E-04
        47 -2.533179E-05  2.120239E-04 -1.391263E-04
        48  2.531239E-05  2.120046E-04 -1.390672E-04
        49 -2.213570E-05  4.978240E-04 -2.005628E-04
        50  7.290570E-06  6.091623E-04 -1.773099E-04
        51  7.613775E-05  7.577679E-04 -9.195987E-05
        74  6.810872E-05  7.979341E-04  8.584704E-05
        75 -5.261303E-06  6.298606E-04  1.719591E-04
        76 -1.447924E-05  4.848207E-04  1.987982E-04
        77  2.795263E-05  2.052466E-04  1.390374E-04
        89 -6.921344E-05  7.990388E-04  8.767424E-05
        90  5.408144E-06  6.297137E-04  1.724641E-04
        91  1.432103E-05  4.849788E-04  1.987483E-04
        92 -2.793331E-05  2.052273E-04  1.389784E-04
        98  0.000000E+00  0.000000E+00  0.000000E+00
        99  0.000000E+00  0.000000E+00  0.000000E+00
       100  0.000000E+00  0.000000E+00  0.000000E+00
       101  0.000000E+00  0.000000E+00  0.000000E+00
       102  0.000000E+00  0.000000E+00  0.000000E+00
       124  4.784710E-05  7.230805E-04 -7.203904E-05
       125  1.532733E-07  7.790138E-04 -1.004600E-04
       126 -4.723226E-05  7.224488E-04 -7.139571E-05
       127 -2.446823E-08  6.449673E-04 -1.533946E-04
       128 -1.390774E-05  4.943339E-04 -2.130131E-04
       129 -6.541945E-09  4.655051E-04 -2.089382E-04
       130  1.398493E-05  4.942776E-04 -2.129521E-04
       131  5.147565E-09  2.160617E-04 -1.443127E-04
       153  1.271571E-05  8.595460E-04 -3.572289E-05
       154  4.416716E-06  7.080743E-04 -3.205792E-06
       155 -1.433876E-05  8.681692E-04  3.421846E-05
       156  6.835884E-06  6.634282E-04  3.513339E-07
       157 -1.957920E-06  4.465189E-04 -8.590358E-05
       158 -4.820966E-06  4.608066E-04  3.810069E-07
       159  1.951021E-06  4.431830E-04  8.401355E-05
       160 -1.696554E-06  1.933332E-04 -5.761971E-08
       182  5.227625E-05  6.985942E-04  6.689192E-05
       183 -1.532885E-07  8.148284E-04  9.725443E-05
       184 -5.289094E-05  6.992250E-04  6.753455E-05
       185  2.442247E-08  6.567535E-04  1.503148E-04
       186 -1.215680E-05  4.986819E-04  2.126008E-04
       187  6.528995E-09  4.566349E-04  2.073782E-04
       188  1.207969E-05  4.987381E-04  2.126618E-04
       189 -5.176397E-09  2.121783E-04  1.427751E-04
       211  1.370781E-05  8.687838E-04  3.486123E-05
       212 -4.416925E-06  7.083808E-04 -3.205559E-06
       213 -1.208457E-05  8.601611E-04 -3.636577E-05
       214 -6.835961E-06  6.633793E-04  3.513199E-07
       215 -2.007230E-06  4.432601E-04  8.407455E-05
       216  4.820944E-06  4.607934E-04  3.810269E-07
       217  2.014136E-06  4.465961E-04 -8.596464E-05
       218  1.696560E-06  1.933435E-04 -5.755044E-08
       250  1.410203E-07  8.272938E-04 -4.404716E-05
       251  7.021670E-07  6.288137E-04 -1.085529E-06