
 displacements (vx,vy,vz) for set NALL and time  0.5000000E-02

         5  0.000000E+00  0.000000E+00  0.000000E+00
         6  0.000000E+00  0.000000E+00  0.000000E+00
         7  0.000000E+00  0.000000E+00  0.000000E+00
         8  0.000000E+00  0.000000E+00  0.000000E+00
        21  0.000000E+00  0.000000E+00  0.000000E+00
        22  0.000000E+00  0.000000E+00  0.000000E+00
        23  0.000000E+00  0.000000E+00  0.000000E+00
        24  0.000000E+00  0.000000E+00  0.000000E+00
        25  0.000000E+00  0.000000E+00  0.000000E+00
        26  0.000000E+00  0.000000E+00  0.000000E+00
        27  0.000000E+00  0.000000E+00  0.000000E+00
        28  0.000000E+00  0.000000E+00  0.000000E+00
        29  0.000000E+00  0.000000E+00  0.000000E+00
        30  0.000000E+00  0.000000E+00  0.000000E+00
        31  0.000000E+00  0.000000E+00  0.000000E+00
        32  0.000000E+00  0.000000E+00  0.000000E+00
        44 -6.491705E-05 -3.461981E-03  4.478023E-04
        45  5.785100E-05 -2.555697E-03  7.851806E-04
        46 -4.615571E-05 -1.796348E-03  9.497762E-04
        47  1.305832E-04 -6.750828E-04  5.422685E-04
        48 -1.305832E-04 -6.750828E-04  5.422685E-04
        49  4.615572E-05 -1.796348E-03  9.497763E-04
        50 -5.785073E-05 -2.555697E-03  7.851806E-04
        51  6.491749E-05 -3.461980E-03  4.478022E-04
        74  3.543678E-04 -4.419852E-03 -4.939964E-04
        75  2.042387E-04 -2.975327E-03 -7.855841E-04
        76 -1.162589E-04 -1.596780E-03 -9.511298E-04
        77 -2.116264E-04 -5.245886E-04 -5.571505E-04
        89 -3.543669E-04 -4.419852E-03 -4.939964E-04
        90 -2.042383E-04 -2.975327E-03 -7.855841E-04
        91  1.162589E-04 -1.596780E-03 -9.511297E-04
        92  2.116264E-04 -5.245887E-04 -5.571506E-04
        98  0.000000E+00  0.000000E+00  0.000000E+00
        99  0.000000E+00  0.000000E+00  0.000000E+00
       100  0.000000E+00  0.000000E+00  0.000000E+00
       101  0.000000E+00  0.000000E+00  0.000000E+00
       102  0.000000E+00  0.000000E+00  0.000000E+00
       124  1.358729E-04 -2.965302E-03  4.285424E-04
       125  3.703837E-10 -3.578804E-03  4.476768E-04
       126 -1.358720E-04 -2.965301E-03  4.285425E-04
       127  1.481516E-11 -2.558880E-03  9.025747E-04
       128 -6.236951E-06 -1.952301E-03  9.472324E-04
       129  1.429837E-10 -1.815396E-03  9.400229E-04
       130  6.237015E-06 -1.952301E-03  9.472323E-04
       131  2.999232E-12 -7.366147E-04  5.562609E-04
       153  7.679260E-05 -3.614356E-03  1.905544E-04
       154 -1.093593E-04 -2.483272E-03 -2.067538E-05
       155 -8.524425E-05 -3.897126E-03 -2.374168E-04
       156 -1.170982E-04 -2.786765E-03 -6.562918E-05
       157 -2.263205E-05 -1.510293E-03  3.925535E-04
       158  8.476654E-05 -1.564533E-03 -2.969229E-05
       159  5.176121E-05 -1.470583E-03 -4.110307E-04
       160  3.898912E-05 -6.574949E-04  4.817057E-06
       182  1.391262E-04 -2.560564E-03 -4.699317E-04
       183  6.620412E-10 -4.338182E-03 -4.760889E-04
       184 -1.391249E-04 -2.560563E-03 -4.699317E-04
       185  6.312414E-11 -2.822336E-03 -8.703966E-04
       186 -4.848579E-05 -2.161821E-03 -9.819043E-04
       187  1.538168E-10 -1.834498E-03 -9.608579E-04
       188  4.848588E-05 -2.161821E-03 -9.819042E-04
       189  3.259380E-12 -7.224229E-04 -5.645469E-04
       211  8.524400E-05 -3.897126E-03 -2.374168E-04
       212  1.093604E-04 -2.483273E-03 -2.067540E-05
       213 -7.679260E-05 -3.614357E-03  1.905544E-04
       214  1.170988E-04 -2.786765E-03 -6.562928E-05
       215 -5.176107E-05 -1.470583E-03 -4.110307E-04
       216 -8.476683E-05 -1.564533E-03 -2.969242E-05
       217  2.263210E-05 -1.510293E-03  3.925534E-04
       218 -3.898923E-05 -6.574948E-04  4.817044E-06
       250  1.918633E-10 -4.092041E-03  1.741355E-04
       251  4.077508E-05 -2.569003E-03 -1.034241E-05
       252 -1.870936E-10 -3.128128E-03 -1.590220E-05
       253 -4.077525E-05 -2.569003E-03 -1.034234E-05
       254  2.172374E-10 -4.391649E-03 -2.541113E-04
       255  6.569687E-11 -2.597156E-03 -3.174913E-05
       256  4.495355E-11 -1.604909E-03  3.946042E-04
       257 -4.283663E-05 -1.747084E-03 -1.196264E-05
       258  7.151756E-12 -1.790099E-03 -1.455737E-05
       259  4.283661E-05 -1.747084E-03 -1.196257E-05
       260  7.728196E-11 -1.627185E-03 -4.173740E-04
       261  3.261071E-11 -7.160626E-04 -1.834366E-06

 forces (fx,fy,fz) for set NALL and time  0.5000000E-02

         5  2.239514E+00 -4.192810E+00 -1.093834E+00
         6 -2.239516E+00 -4.192805E+00 -1.093834E+00
         7  3.346506E+00  9.561599E-01  1.253843E+00
         8 -3.346511E+00  9.561660E-01  1.253845E+00
        21 -2.715349E+00  5.639295E+00 -1.790560E+01
        22 -1.089007E-06 -1.005417E+01 -6.358710E-01
        23  2.715350E+00  5.639290E+00 -1.790560E+01
        24 -4.679768E+00  1.712190E+01 -1.022092E+01
        25  6.779403E-01 -1.164317E+01 -4.728374E-01
        26  2.364295E+00  1.356345E+01  1.052493E+01
        27 -1.808776E+00 -3.023958E-01  1.759424E+01
        28 -3.039441E-06 -1.682607E+00  1.778346E+00
        29  1.808779E+00 -3.024040E-01  1.759424E+01
        30 -2.364287E+00  1.356344E+01  1.052492E+01
        31 -6.779539E-01 -1.164316E+01 -4.728345E-01
        32  4.679774E+00  1.712190E+01 -1.022092E+01
        44  1.421120E+00  5.208784E+01  1.443043E+00
        45 -7.131454E-06 -6.080380E-01  1.525634E-01
        46  5.450937E-06  1.541473E+00 -4.634098E-01
        47 -1.911800E-06 -1.167011E+00  5.403038E-01
        48  2.089417E-06 -1.167010E+00  5.403044E-01
        49 -4.880391E-06  1.541474E+00 -4.634100E-01
        50  5.313818E-06 -6.080403E-01  1.525630E-01
        51 -1.421100E+00  5.208788E+01  1.443041E+00
        74 -6.419123E+00  1.849091E+01 -1.003111E+00
        75  6.456635E-07 -6.081234E-01 -1.525356E-01
        76 -1.637901E-06  1.541534E+00  4.634018E-01
        77  4.014507E-06 -1.167024E+00 -5.403001E-01
        89  6.419163E+00  1.849086E+01 -1.003111E+00
        90 -3.468012E-06 -6.081198E-01 -1.525355E-01
        91  2.119463E-06  1.541534E+00  4.634019E-01
        92 -3.430519E-06 -1.167026E+00 -5.403000E-01
        98 -2.810935E-07  3.817966E+01 -1.717253E+01
        99 -4.221405E-01 -7.593849E+00  6.620375E-01
       100 -7.865304E-06 -2.295309E+01 -3.662576E-01
       101  4.221549E-01 -7.593848E+00  6.620386E-01
       102 -2.147716E-08  3.516135E+01  1.646115E+01
       124  1.649392E+01  1.920849E+01 -6.259016E-01
       125  6.832462E-06  1.128979E+02  2.972809E+00
       126 -1.649392E+01  1.920853E+01 -6.259017E-01
       127  4.398413E-07 -1.216077E+00  3.051177E-01
       128  4.557358E-06 -2.615777E+00  9.358650E-01
       129 -1.977983E-07  3.082946E+00 -9.268166E-01
       130 -5.016824E-06 -2.615776E+00  9.358641E-01
       131  5.295606E-07 -2.334021E+00  1.080606E+00
       153  1.195563E+01 -1.326491E+02 -2.317031E+00
       154 -1.305562E+00  9.936927E+01  4.288418E-01
       155  2.272811E+00 -1.091957E+02  1.425510E+00
       156 -1.171596E-05 -1.216153E+00 -2.478953E-05
       157 -7.607188E-06 -2.615785E+00  7.018891E-01
       158  5.803618E-06  3.083006E+00  1.159795E-05
       159 -1.389461E-07 -2.615848E+00 -7.018921E-01
       160 -1.208115E-06 -2.334038E+00 -3.363797E-06
       182  7.949477E+00  6.443465E+01  4.494975E-01
       183  2.438128E-05  5.183209E+01 -1.416486E+00
       184 -7.949489E+00  6.443471E+01  4.494986E-01
       185  1.291350E-06 -6.742573E+00 -3.050653E-01
       186  2.521113E-06 -8.142179E+00 -9.358385E-01
       187 -4.799364E-07 -2.443243E+00  9.268048E-01
       188 -2.878671E-06 -8.142177E+00 -9.358381E-01
       189  4.008576E-07 -7.860373E+00 -1.080595E+00
       211 -2.272876E+00 -1.091956E+02  1.425511E+00
       212  1.305664E+00  9.936925E+01  4.288390E-01
       213 -1.195567E+01 -1.326491E+02 -2.317026E+00
       214  9.290749E-06 -1.216154E+00 -2.298061E-05
       215 -1.520333E-06 -2.615846E+00 -7.018923E-01
       216 -4.644037E-06  3.083005E+00  1.076122E-05
       217  6.236497E-06 -2.615787E+00  7.018893E-01
       218  5.972944E-07 -2.334038E+00 -4.638790E-06
       250 -1.568851E-07 -2.957162E+02 -5.873354E+00
       251  7.011825E+00  8.802865E+01  5.622307E-01
       252  6.130735E-05  2.061721E+02  1.298411E+00
       253 -7.011946E+00  8.802863E+01  5.622355E-01
       254 -1.183984E-05 -2.672622E+02  1.543913E+00
       255  3.291447E-06 -2.432314E+00 -6.072735E-05
       256  8.448437E-07 -5.231571E+00  1.403768E+00
       257  7.240910E-06 -5.231633E+00 -2.667987E-05
       258 -6.528287E-07  6.166016E+00  2.392871E-05
       259 -6.920824E-06 -5.231632E+00 -2.695524E-05
       260  1.693371E-06 -5.231707E+00 -1.403780E+00
       261 -4.982045E-07 -4.668080E+00 -9.360839E-06

 displacements (vx,vy,vz) for set NALL and time  0.1000000E-01

         5  0.000000E+00  0.000000E+00  0.000000E+00
         6  0.000000E+00  0.000000E+00  0.000000E+00
         7  0.000000E+00  0.000000E+00  0.000000E+00
         8  0.000000E+00  0.000000E+00  0.000000E+00
        21  0.000000E+00  0.000000E+00  0.000000E+00
        22  0.000000E+00  0.000000E+00  0.000000E+00
        23  0.000000E+00  0.000000E+00  0.000000E+00
        24  0.000000E+00  0.000000E+00  0.000000E+00
        25  0.000000E+00  0.000000E+00  0.000000E+00
        26  0.000000E+00  0.000000E+00  0.000000E+00
        27  0.000000E+00  0.000000E+00  0.000000E+00
        28  0.000000E+00  0.000000E+00  0.000000E+00
        29  0.000000E+00  0.000000E+00  0.000000E+00
        30  0.000000E+00  0.000000E+00  0.000000E+00
        31  0.000000E+00  0.000000E+00  0.000000E+00
        32  0.000000E+00  0.000000E+00  0.000000E+00
        44 -1.510484E-04  1.609228E-03 -2.339325E-04
        45 -3.516769E-05  1.249483E-03 -3.773013E-04
        46  4.148820E-05  9.137808E-04 -4.323034E-04
        47 -5.401402E-05  3.697592E-04 -2.840033E-04
        48  5.401392E-05  3.697592E-04 -2.840033E-04
        49 -4.148829E-05  9.137810E-04 -4.323036E-04
        50  3.516753E-05  1.249483E-03 -3.773012E-04
        51  1.510477E-04  1.609227E-03 -2.339325E-04
        74  1.496272E-04  1.613978E-03  2.341653E-04
        75  3.387491E-05  1.251561E-03  3.773046E-04
        76 -4.068494E-05  9.127947E-04  4.323114E-04
        77  5.441467E-05  3.690129E-04  2.840781E-04
        89 -1.496278E-04  1.613978E-03  2.341654E-04
        90 -3.387545E-05  1.251561E-03  3.773047E-04
        91  4.068493E-05  9.127946E-04  4.323116E-04
        92 -5.441461E-05  3.690129E-04  2.840782E-04
        98  0.000000E+00  0.000000E+00  0.000000E+00
        99  0.000000E+00  0.000000E+00  0.000000E+00
       100  0.000000E+00  0.000000E+00  0.000000E+00
       101  0.000000E+00  0.000000E+00  0.000000E+00
       102  0.000000E+00  0.000000E+00  0.000000E+00
       124  4.652663E-06  1.479581E-03 -2.204573E-04
       125 -1.121972E-09  1.768656E-03 -2.313286E-04
       126 -4.654481E-06  1.479580E-03 -2.204573E-04
       127 -1.347816E-10  1.301565E-03 -4.173434E-04
       128 -3.422357E-06  9.591731E-04 -4.635305E-04
       129 -9.120969E-11  8.894465E-04 -4.722950E-04
       130  3.422308E-06  9.591734E-04 -4.635304E-04
       131  5.643414E-12  3.754161E-04 -2.760345E-04
       153  1.246778E-04  1.916747E-03 -1.038703E-04
       154  5.480676E-07  1.693526E-03  1.046329E-07
       155 -1.246437E-04  1.918140E-03  1.041066E-04
       156  5.820478E-07  1.406634E-03  3.271633E-07
       157 -2.495523E-05  7.929005E-04 -1.860444E-04
       158 -4.228927E-07  8.098208E-04  1.478517E-07
       159  2.481062E-05  7.927081E-04  1.861376E-04
       160 -1.942605E-07  3.081981E-04 -2.416638E-08
       182  4.652700E-06  1.477574E-03  2.206665E-04
       183  2.184822E-10  1.772432E-03  2.314722E-04
       184 -4.652966E-06  1.477574E-03  2.206666E-04
       185 -2.086228E-11  1.302881E-03  4.171872E-04
       186 -3.215830E-06  9.602192E-04  4.637042E-04
       187 -1.852826E-10  8.895490E-04  4.724014E-04
       188  3.215683E-06  9.602192E-04  4.637043E-04
       189 -3.142690E-11  3.753472E-04  2.760768E-04
       211  1.246432E-04  1.918139E-03  1.041067E-04
       212 -5.492254E-07  1.693525E-03  1.047152E-07
       213 -1.246775E-04  1.916747E-03 -1.038702E-04
       214 -5.827454E-07  1.406634E-03  3.272796E-07
       215 -2.481064E-05  7.927082E-04  1.861378E-04
       216  4.230949E-07  8.098209E-04  1.480027E-07
       217  2.495499E-05  7.929005E-04 -1.860444E-04
       218  1.943460E-07  3.081981E-04 -2.412136E-08
       250 -2.371493E-11  1.909989E-03 -1.030563E-04
       251 -1.986599E-07  1.209542E-03  5.277118E-08
       252 -8.123151E-12  1.542538E-03  8.053371E-08
       253  1.985267E-07  1.209542E-03  5.271629E-08
       254 -4.666223E-10  1.911492E-03  1.034581E-04
       255 -1.205345E-10  1.375119E-03  1.596669E-07
       256 -1.790785E-10  7.833243E-04 -2.072614E-04
       257  2.124890E-07  9.139841E-04  6.044650E-08
       258 -3.278288E-11  8.124130E-04  7.328855E-08
       259 -2.125271E-07  9.139842E-04  6.035201E-08
       260  2.488505E-11  7.834361E-04  2.073759E-04
       261 -2.565255E-11  3.484663E-04  9.093447E-09

 forces (fx,fy,fz) for set NALL and time  0.1000000E-01

         5 -1.666272E+00  3.842929E-01  9.240598E-01
         6  1.666274E+00  3.842881E-01  9.240612E-01
         7 -1.671831E+00  3.586517E-01 -9.248566E-01
         8  1.671833E+00  3.586483E-01 -9.248558E-01
        21  1.035329E+00 -1.647069E+00  8.956786E+00
        22  2.698206E-06  7.369495E-01  1.410457E+00
        23 -1.035326E+00 -1.647058E+00  8.956787E+00
        24  1.171743E+00 -5.896053E+00  4.716781E+00
        25 -3.458909E-03  2.439341E+00  2.340132E-03
        26 -1.160165E+00 -5.878318E+00 -4.718286E+00
        27  1.030848E+00 -1.617524E+00 -8.955267E+00
        28 -1.312114E-07  6.953642E-01 -1.416116E+00
        29 -1.030852E+00 -1.617522E+00 -8.955268E+00
        30  1.160163E+00 -5.878313E+00 -4.718287E+00
        31  3.470748E-03  2.439344E+00  2.338289E-03
        32 -1.171754E+00 -5.896052E+00  4.716781E+00
        44 -6.137320E+00 -1.510998E+01 -7.523394E-01
        45  6.108226E-06  5.208353E-01 -1.306833E-01
        46 -4.673673E-06 -1.320401E+00  3.969495E-01
        47  1.646701E-06  9.996432E-01 -4.628157E-01
        48 -1.798845E-06  9.996421E-01 -4.628162E-01
        49  4.184953E-06 -1.320402E+00  3.969497E-01
        50 -4.551268E-06  5.208373E-01 -1.306830E-01
        51  6.137285E+00 -1.511003E+01 -7.523403E-01
        74  6.162502E+00 -1.494299E+01  7.501429E-01
        75 -5.477475E-07  5.209086E-01  1.306595E-01
        76  1.404674E-06 -1.320454E+00 -3.969427E-01
        77 -3.448439E-06  9.996540E-01  4.628125E-01
        89 -6.162513E+00 -1.494297E+01  7.501413E-01
        90  2.965327E-06  5.209054E-01  1.306595E-01
        91 -1.817173E-06 -1.320453E+00 -3.969428E-01
        92  2.948205E-06  9.996559E-01  4.628125E-01
        98 -5.350630E-06 -1.289686E+01  8.227089E+00
        99  1.984481E-03  3.928665E+00 -3.293475E-03
       100  7.149500E-06  5.308525E+00  1.817731E-03
       101 -1.996959E-03  3.928675E+00 -3.293841E-03
       102  5.047138E-06 -1.288200E+01 -8.223565E+00
       124 -6.454199E+00 -1.697877E+01  4.647587E-01
       125 -2.954401E-05 -3.107580E+01 -1.397363E+00
       126  6.454165E+00 -1.697885E+01  4.647585E-01
       127 -3.767612E-07  1.041671E+00 -2.613589E-01
       128 -3.909516E-06  2.240633E+00 -8.016472E-01
       129  1.694309E-07 -2.640803E+00  7.938964E-01
       130  4.303088E-06  2.240632E+00 -8.016464E-01
       131 -4.536133E-07  1.999285E+00 -9.256298E-01
       153  4.568087E+00  5.175845E+01  1.171169E+00
       154  7.242154E-03 -3.299012E+01 -2.149669E-03
       155 -4.639435E+00  5.164174E+01 -1.166712E+00
       156  1.002897E-05  1.041737E+00  2.122521E-05
       157  6.521886E-06  2.240640E+00 -6.012271E-01
       158 -4.970668E-06 -2.640853E+00 -9.928979E-06
       159  1.167071E-07  2.240694E+00  6.012297E-01
       160  1.038957E-06  1.999300E+00  2.881469E-06
       182 -6.411798E+00 -1.720344E+01 -4.638664E-01
       183  1.032633E-05 -3.077326E+01  1.389578E+00
       184  6.411828E+00 -1.720344E+01 -4.638639E-01
       185 -1.106150E-06  1.069527E+00  2.613140E-01
       186 -2.162690E-06  2.268408E+00  8.016245E-01
       187  4.111059E-07 -2.613210E+00 -7.938863E-01
       188  2.468969E-06  2.268406E+00  8.016241E-01
       189 -3.433684E-07  2.027017E+00  9.256210E-01
       211  4.639441E+00  5.164169E+01 -1.166710E+00
       212 -7.328996E-03 -3.299016E+01 -2.151280E-03
       213 -4.567999E+00  5.175844E+01  1.171170E+00
       214 -7.951569E-06  1.041737E+00  1.967572E-05
       215  1.304605E-06  2.240692E+00  6.012298E-01
       216  3.977389E-06 -2.640853E+00 -9.212246E-06
       217 -5.347773E-06  2.240641E+00 -6.012273E-01
       218 -5.157368E-07  1.999300E+00  3.973609E-06
       250  5.507419E-05  1.048901E+02  2.316693E+00
       251 -3.391612E-02 -4.739003E+01 -2.781530E-03
       252 -5.334454E-05 -6.965749E+01 -6.516153E-03
       253  3.401623E-02 -4.739012E+01 -2.783737E-03
       254 -4.220359E-05  1.047503E+02 -2.295041E+00
       255 -2.819402E-06  2.083480E+00  5.200272E-05
       256 -7.236799E-07  4.481281E+00 -1.202446E+00
       257 -6.205199E-06  4.481333E+00  2.284545E-05
       258  5.592028E-07 -5.281711E+00 -2.048561E-05
       259  5.931018E-06  4.481333E+00  2.308133E-05
       260 -1.450515E-06  4.481397E+00  1.202456E+00
       261  4.267542E-07  3.998604E+00  8.017819E-06

 displacements (vx,vy,vz) for set NALL and time  0.1500000E-01

         5  0.000000E+00  0.000000E+00  0.000000E+00
         6  0.000000E+00  0.000000E+00  0.000000E+00
         7  0.000000E+00  0.000000E+00  0.000000E+00
         8  0.000000E+00  0.000000E+00  0.000000E+00
        21  0.000000E+00  0.000000E+00  0.000000E+00
        22  0.000000E+00  0.000000E+00  0.000000E+00
        23  0.000000E+00  0.000000E+00  0.000000E+00
        24  0.000000E+00  0.000000E+00  0.000000E+00
        25  0.000000E+00  0.000000E+00  0.000000E+00
        26  0.000000E+00  0.000000E+00  0.000000E+00
        27  0.000000E+00  0.000000E+00  0.000000E+00
        28  0.000000E+00  0.000000E+00  0.000000E+00
        29  0.000000E+00  0.000000E+00  0.000000E+00
        30  0.000000E+00  0.000000E+00  0.000000E+00
        31  0.000000E+00  0.000000E+00  0.000000E+00
        32  0.000000E+00  0.000000E+00  0.000000E+00
        44  1.210371E-04 -1.273928E-03  1.853954E-04
        45  2.790619E-05 -9.896350E-04  2.987860E-04
        46 -3.300452E-05 -7.240202E-04  3.421546E-04
        47  4.270586E-05 -2.931666E-04  2.250857E-04
        48 -4.270567E-05 -2.931665E-04  2.250851E-04
        49  3.300527E-05 -7.240204E-04  3.421546E-04
        50 -2.790465E-05 -9.896355E-04  2.987860E-04
        51 -1.210331E-04 -1.273929E-03  1.853949E-04
        74 -1.209950E-04 -1.274126E-03 -1.854082E-04
        75 -2.785837E-05 -9.897204E-04 -2.987873E-04
        76  3.297367E-05 -7.239819E-04 -3.421562E-04
        77 -4.272081E-05 -2.931348E-04 -2.250892E-04
        89  1.209774E-04 -1.274148E-03 -1.854086E-04
        90  2.785177E-05 -9.897276E-04 -2.987871E-04
        91 -3.296900E-05 -7.239774E-04 -3.421556E-04
        92  4.272359E-05 -2.931327E-04 -2.250898E-04
        98  0.000000E+00  0.000000E+00  0.000000E+00
        99  0.000000E+00  0.000000E+00  0.000000E+00
       100  0.000000E+00  0.000000E+00  0.000000E+00
       101  0.000000E+00  0.000000E+00  0.000000E+00
       102  0.000000E+00  0.000000E+00  0.000000E+00
       124 -4.224942E-06 -1.172107E-03  1.746907E-04
       125  3.692745E-09 -1.400984E-03  1.833135E-04
       126  4.232737E-06 -1.172105E-03  1.746909E-04
       127  6.473937E-10 -1.031273E-03  3.303668E-04
       128  2.760123E-06 -7.597365E-04  3.671366E-04
       129  6.778881E-10 -7.044877E-04  3.741725E-04
       130 -2.759590E-06 -7.597368E-04  3.671365E-04
       131 -9.744263E-11 -2.974596E-04  2.186602E-04
       153 -9.999221E-05 -1.519286E-03  8.234985E-05
       154 -2.846447E-08 -1.345009E-03 -6.004365E-09
       155  1.000006E-04 -1.519336E-03 -8.236288E-05
       156 -2.565155E-08 -1.114443E-03 -1.513054E-08
       157  2.004185E-05 -6.284225E-04  1.473089E-04
       158  2.058395E-08 -6.417515E-04 -6.557420E-09
       159 -2.003582E-05 -6.284183E-04 -1.473140E-04
       160  9.218412E-09 -2.440021E-04  1.269525E-09
       182 -4.242563E-06 -1.172023E-03 -1.747031E-04
       183  6.621993E-09 -1.401159E-03 -1.833220E-04
       184  4.244983E-06 -1.172013E-03 -1.747033E-04
       185  7.390205E-10 -1.031339E-03 -3.303628E-04
       186  2.754503E-06 -7.597870E-04 -3.671458E-04
       187  6.222220E-10 -7.044985E-04 -3.741797E-04
       188 -2.752643E-06 -7.597894E-04 -3.671456E-04
       189 -2.888699E-10 -2.974576E-04 -2.186630E-04
       211 -9.999533E-05 -1.519341E-03 -8.236342E-05
       212  3.091156E-08 -1.345010E-03 -6.555106E-09
       213  9.999315E-05 -1.519290E-03  8.234924E-05
       214  2.863714E-08 -1.114443E-03 -1.630548E-08
       215  2.003487E-05 -6.284174E-04 -1.473141E-04
       216 -2.130091E-08 -6.417513E-04 -7.503319E-09
       217 -2.004132E-05 -6.284219E-04  1.473083E-04
       218 -9.471973E-09 -2.440021E-04  1.267558E-09
       250  6.640701E-10 -1.512084E-03  8.176024E-05
       251  3.813353E-09 -9.576383E-04 -3.635236E-09
       252 -8.664806E-11 -1.221844E-03 -4.902449E-09
       253 -6.023606E-09 -9.576386E-04 -3.322821E-09
       254 -2.278668E-11 -1.512166E-03 -8.178202E-05
       255  1.070309E-09 -1.089953E-03 -8.814241E-09
       256  4.260450E-10 -6.204095E-04  1.642685E-04
       257 -9.234309E-09 -7.243672E-04 -3.796952E-09
       258 -3.640932E-10 -6.429771E-04 -4.094802E-09
       259  9.299016E-09 -7.243670E-04 -3.228399E-09
       260  8.598101E-10 -6.204151E-04 -1.642748E-04
       261  3.706450E-11 -2.759850E-04 -3.948876E-10

 forces (fx,fy,fz) for set NALL and time  0.1500000E-01

         5  1.324114E+00 -2.916653E-01 -7.348641E-01
         6 -1.324123E+00 -2.916407E-01 -7.348637E-01
         7  1.324428E+00 -2.904655E-01  7.348988E-01
         8 -1.324413E+00 -2.903998E-01  7.349038E-01
        21 -8.177625E-01  1.296003E+00 -7.095630E+00
        22 -1.028064E-05 -5.516992E-01 -1.125556E+00
        23  8.177610E-01  1.295991E+00 -7.095636E+00
        24 -9.195085E-01  4.651030E+00 -3.733722E+00
        25  2.211190E-04 -1.907215E+00 -1.016565E-04
        26  9.189223E-01  4.650215E+00  3.733783E+00
        27 -8.175807E-01  1.294668E+00  7.095588E+00
        28  2.558077E-06 -5.498222E-01  1.125801E+00
        29  8.175665E-01  1.294599E+00  7.095585E+00
        30 -9.189211E-01  4.650158E+00  3.733788E+00
        31 -2.703603E-04 -1.907181E+00 -9.375498E-05
        32  9.195333E-01  4.651066E+00 -3.733721E+00
        44  4.902685E+00  1.188849E+01  5.962488E-01
        45 -4.853812E-06 -4.142314E-01  1.039353E-01
        46  3.723420E-06  1.050144E+00 -3.157028E-01
        47 -1.326204E-06 -7.950387E-01  3.680877E-01
        48  1.447207E-06 -7.950378E-01  3.680881E-01
        49 -3.334730E-06  1.050145E+00 -3.157029E-01
        50  3.615528E-06 -4.142330E-01  1.039350E-01
        51 -4.902600E+00  1.188868E+01  5.962516E-01
        74 -4.904144E+00  1.188112E+01 -5.961434E-01
        75  4.246336E-07 -4.142896E-01 -1.039163E-01
        76 -1.119568E-06  1.050186E+00  3.156973E-01
        77  2.759998E-06 -7.950473E-01 -3.680852E-01
        89  4.904056E+00  1.188058E+01 -5.961394E-01
        90 -2.347390E-06 -4.142871E-01 -1.039163E-01
        91  1.447637E-06  1.050186E+00  3.156974E-01
        92 -2.362150E-06 -7.950488E-01 -3.680852E-01
        98  1.019935E-05  1.017071E+01 -6.514873E+00
        99  5.147485E-05 -3.113432E+00  1.524445E-04
       100 -3.939916E-05 -4.159332E+00 -8.117650E-05
       101  3.298384E-05 -3.113383E+00  1.528066E-04
       102 -1.639329E-05  1.017016E+01  6.514721E+00
       124  5.099569E+00  1.350615E+01 -3.693551E-01
       125  6.325324E-05  2.442848E+01  1.106360E+00
       126 -5.099516E+00  1.350628E+01 -3.693496E-01
       127  2.996466E-07 -8.284632E-01  2.078644E-01
       128  3.118394E-06 -1.782026E+00  6.375679E-01
       129 -1.347522E-07  2.100289E+00 -6.314035E-01
       130 -3.431411E-06 -1.782025E+00  6.375673E-01
       131  3.607689E-07 -1.590077E+00  7.361742E-01
       153 -3.697920E+00 -4.089496E+01 -9.279165E-01
       154 -8.995461E-04  2.601054E+01  1.110310E-04
       155  3.701711E+00 -4.088975E+01  9.276963E-01
       156 -7.966814E-06 -8.285152E-01 -1.686811E-05
       157 -5.195844E-06 -1.782031E+00  4.781694E-01
       158  3.952415E-06  2.100329E+00  7.888829E-06
       159 -8.871327E-08 -1.782073E+00 -4.781714E-01
       160 -8.320607E-07 -1.590088E+00 -2.291829E-06
       182  5.097720E+00  1.351608E+01  3.693034E-01
       183 -3.278305E-05  2.441550E+01 -1.105966E+00
       184 -5.097547E+00  1.351672E+01  3.692968E-01
       185  8.797461E-07 -8.300441E-01 -2.078286E-01
       186  1.725443E-06 -1.783542E+00 -6.375498E-01
       187 -3.269618E-07  2.098917E+00  6.313955E-01
       188 -1.969034E-06 -1.783541E+00 -6.375496E-01
       189  2.730886E-07 -1.591559E+00 -7.361671E-01
       211 -3.701689E+00 -4.088935E+01  9.276907E-01
       212  1.234535E-03  2.601024E+01  1.151313E-04
       213  3.697721E+00 -4.089523E+01 -9.279227E-01
       214  6.314610E-06 -8.285157E-01 -1.563576E-05
       215 -1.041689E-06 -1.782072E+00 -4.781715E-01
       216 -3.162437E-06  2.100329E+00  7.318795E-06
       217  4.262045E-06 -1.782032E+00  4.781695E-01
       218  4.159321E-07 -1.590088E+00 -3.160433E-06
       250 -9.338396E-05 -8.277347E+01 -1.830678E+00
       251  3.764282E-04  3.756887E+01  1.143351E-04
       252  2.913399E-04  5.493319E+01  3.431833E-04
       253 -1.061858E-03  3.756844E+01  1.241947E-04
       254  7.740153E-05 -8.276860E+01  1.829586E+00
       255  2.242334E-06 -1.657036E+00 -4.133738E-05
       256  5.755589E-07 -3.564062E+00  9.563318E-01
       257  4.938990E-06 -3.564104E+00 -1.815814E-05
       258 -4.447465E-07  4.200662E+00  1.627677E-05
       259 -4.720929E-06 -3.564104E+00 -1.834574E-05
       260  1.153628E-06 -3.564154E+00 -9.563400E-01
       261 -3.394074E-07 -3.180180E+00 -6.376011E-06

 displacements (vx,vy,vz) for set NALL and time  0.2000000E-01

         5  0.000000E+00  0.000000E+00  0.000000E+00
         6  0.000000E+00  0.000000E+00  0.000000E+00
         7  0.000000E+00  0.000000E+00  0.000000E+00
         8  0.000000E+00  0.000000E+00  0.000000E+00
        21  0.000000E+00  0.000000E+00  0.000000E+00
        22  0.000000E+00  0.000000E+00  0.000000E+00
        23  0.000000E+00  0.000000E+00  0.000000E+00
        24  0.000000E+00  0.000000E+00  0.000000E+00
        25  0.000000E+00  0.000000E+00  0.000000E+00
        26  0.000000E+00  0.000000E+00  0.000000E+00
        27  0.000000E+00  0.000000E+00  0.000000E+00
        28  0.000000E+00  0.000000E+00  0.000000E+00
        29  0.000000E+00  0.000000E+00  0.000000E+00
        30  0.000000E+00  0.000000E+00  0.000000E+00
        31  0.000000E+00  0.000000E+00  0.000000E+00
        32  0.000000E+00  0.000000E+00  0.000000E+00
        44 -9.401845E-05  9.887624E-04 -1.439019E-04
        45 -2.166206E-05  7.681319E-04 -2.319085E-04
        46  2.562506E-05  5.619825E-04 -2.655600E-04
        47 -3.314324E-05  2.275646E-04 -1.747135E-04
        48  3.314274E-05  2.275646E-04 -1.747134E-04
        49 -2.562568E-05  5.619824E-04 -2.655603E-04
        50  2.166295E-05  7.681323E-04 -2.319084E-04
        51  9.402061E-05  9.887620E-04 -1.439017E-04
        74  9.403856E-05  9.887428E-04  1.439034E-04
        75  2.167319E-05  7.681223E-04  2.319091E-04
        76 -2.563063E-05  5.619887E-04  2.655611E-04
        77  3.314017E-05  2.275676E-04  1.747138E-04
        89 -9.402904E-05  9.887497E-04  1.439031E-04
        90 -2.166974E-05  7.681247E-04  2.319090E-04
        91  2.562859E-05  5.619871E-04  2.655607E-04
        92 -3.314142E-05  2.275668E-04  1.747139E-04
        98  0.000000E+00  0.000000E+00  0.000000E+00
        99  0.000000E+00  0.000000E+00  0.000000E+00
       100  0.000000E+00  0.000000E+00  0.000000E+00
       101  0.000000E+00  0.000000E+00  0.000000E+00
       102  0.000000E+00  0.000000E+00  0.000000E+00
       124  3.311716E-06  9.097700E-04 -1.355913E-04
       125 -4.399950E-09  1.087421E-03 -1.422855E-04
       126 -3.314809E-06  9.097686E-04 -1.355915E-04
       127 -6.093800E-10  8.004717E-04 -2.564133E-04
       128 -2.145318E-06  5.896934E-04 -2.849641E-04
       129  1.642375E-10  5.468080E-04 -2.904301E-04
       130  2.145124E-06  5.896939E-04 -2.849639E-04
       131  3.322132E-10  2.308865E-04 -1.697203E-04
       153  7.767770E-05  1.179301E-03 -6.392027E-05
       154  4.014990E-09  1.044158E-03  7.897660E-10
       155 -7.768513E-05  1.179290E-03  6.392188E-05
       156 -4.600226E-10  8.650234E-04 -6.310439E-11
       157 -1.557052E-05  4.877880E-04 -1.143351E-04
       158 -4.523973E-10  4.981308E-04 -1.884721E-10
       159  1.557190E-05  4.877914E-04  1.143358E-04
       160 -9.102821E-11  1.893833E-04 -3.175778E-11
       182  3.321961E-06  9.097775E-04  1.355931E-04
       183 -3.389595E-09  1.087415E-03  1.422864E-04
       184 -3.321423E-06  9.097746E-04  1.355931E-04
       185 -4.274649E-10  8.004732E-04  2.564159E-04
       186 -2.147945E-06  5.896938E-04  2.849646E-04
       187  2.879102E-11  5.468118E-04  2.904316E-04
       188  2.147139E-06  5.896945E-04  2.849644E-04
       189  2.807382E-10  2.308875E-04  1.697209E-04
       211  7.768202E-05  1.179292E-03  6.392178E-05
       212 -5.103784E-10  1.044158E-03  9.383115E-10
       213 -7.767919E-05  1.179301E-03 -6.392011E-05
       214  1.196262E-09  8.650236E-04 -1.149743E-10
       215 -1.557088E-05  4.877909E-04  1.143357E-04
       216 -7.306128E-11  4.981307E-04 -6.070703E-12
       217  1.557107E-05  4.877879E-04 -1.143351E-04
       218 -1.935305E-10  1.893833E-04 -1.022809E-10
       250  1.028064E-09  1.173613E-03 -6.346562E-05
       251  3.211196E-09  7.432718E-04  6.901178E-10