
 displacements (vx,vy,vz) for set NALL and time  0.5000000E-02

         5  0.000000E+00  0.000000E+00  0.000000E+00
         6  0.000000E+00  0.000000E+00  0.000000E+00
         7  0.000000E+00  0.000000E+00  0.000000E+00
         8  0.000000E+00  0.000000E+00  0.000000E+00
        21  0.000000E+00  0.000000E+00  0.000000E+00
        22  0.000000E+00  0.000000E+00  0.000000E+00
        23  0.000000E+00  0.000000E+00  0.000000E+00
        24  0.000000E+00  0.000000E+00  0.000000E+00
        25  0.000000E+00  0.000000E+00  0.000000E+00
        26  0.000000E+00  0.000000E+00  0.000000E+00
        27  0.000000E+00  0.000000E+00  0.000000E+00
        28  0.000000E+00  0.000000E+00  0.000000E+00
        29  0.000000E+00  0.000000E+00  0.000000E+00
        30  0.000000E+00  0.000000E+00  0.000000E+00
        31  0.000000E+00  0.000000E+00  0.000000E+00
        32  0.000000E+00  0.000000E+00  0.000000E+00
        44  8.088026E-05 -2.568132E-03  2.607435E-04
        45 -3.644456E-06 -2.025989E-03  5.560091E-04
        46 -5.937146E-05 -1.551734E-03  6.456895E-04
        47  8.634232E-05 -6.529934E-04  4.440442E-04
        48 -8.634313E-05 -6.529941E-04  4.440466E-04
        49  5.937837E-05 -1.551727E-03  6.456915E-04
        50  3.638402E-06 -2.025995E-03  5.559853E-04
        51 -8.082941E-05 -2.568082E-03  2.606593E-04
        74 -2.215734E-05 -2.776787E-03 -2.970015E-04
        75  3.579934E-05 -2.102176E-03 -5.862450E-04
        76  2.873809E-05 -1.554018E-03 -6.664098E-04
        77 -1.125052E-04 -6.085375E-04 -4.556945E-04
        89  2.210709E-05 -2.776736E-03 -2.969173E-04
        90 -3.579294E-05 -2.102182E-03 -5.862213E-04
        91 -2.874489E-05 -1.554011E-03 -6.664118E-04
        92  1.125060E-04 -6.085384E-04 -4.556969E-04
        98  0.000000E+00  0.000000E+00  0.000000E+00
        99  0.000000E+00  0.000000E+00  0.000000E+00
       100  0.000000E+00  0.000000E+00  0.000000E+00
       101  0.000000E+00  0.000000E+00  0.000000E+00
       102  0.000000E+00  0.000000E+00  0.000000E+00
       124 -2.421649E-05 -2.359634E-03  2.166310E-04
       125  8.388003E-09 -2.571255E-03  2.925058E-04
       126  2.424613E-05 -2.359663E-03  2.166619E-04
       127 -1.435769E-09 -2.057192E-03  5.226544E-04
       128  2.870528E-05 -1.576817E-03  6.852536E-04
       129  2.681525E-11 -1.499994E-03  6.780034E-04
       130 -2.870161E-05 -1.576819E-03  6.852563E-04
       131  2.140614E-10 -6.636847E-04  4.387290E-04
       153 -5.942204E-05 -2.929019E-03  9.503356E-05
       154 -2.664222E-05 -2.450557E-03 -2.189706E-05
       155  6.231687E-05 -2.992566E-03 -1.423609E-04
       156 -1.403883E-05 -2.150999E-03 -3.394890E-05
       157  4.295428E-06 -1.410384E-03  2.637031E-04
       158  2.411908E-05 -1.488054E-03 -9.388043E-06
       159  2.659699E-05 -1.429568E-03 -2.796640E-04
       160  1.169382E-05 -5.921495E-04  6.085866E-06
       182 -3.100288E-05 -2.277468E-03 -2.521056E-04
       183 -8.101929E-09 -2.763877E-03 -3.252951E-04
       184  3.097396E-05 -2.277439E-03 -2.520747E-04
       185  1.566350E-09 -2.172904E-03 -5.365174E-04
       186  2.433926E-05 -1.711693E-03 -7.205830E-04
       187  7.829399E-11 -1.640675E-03 -7.192608E-04
       188 -2.434281E-05 -1.711691E-03 -7.205803E-04
       189 -1.808332E-10 -6.969162E-04 -4.587305E-04
       211 -6.234599E-05 -2.992536E-03 -1.423300E-04
       212  2.664263E-05 -2.450540E-03 -2.189711E-05
       213  5.945139E-05 -2.928990E-03  9.500253E-05
       214  1.403909E-05 -2.151002E-03 -3.394895E-05
       215 -2.659922E-05 -1.429565E-03 -2.796614E-04
       216 -2.411909E-05 -1.488054E-03 -9.388129E-06
       217 -4.293033E-06 -1.410380E-03  2.637003E-04
       218 -1.169383E-05 -5.921491E-04  6.085816E-06
       250  7.335937E-09 -2.651670E-03  7.346802E-05
       251  3.484883E-07 -2.031701E-03  4.919613E-06
       252  9.502773E-11 -2.134142E-03 -9.616956E-06
       253 -3.482934E-07 -2.031716E-03  4.919657E-06
       254 -7.066267E-09 -2.760024E-03 -1.820625E-04
       255  6.515344E-11 -2.220718E-03 -2.175137E-05
       256 -8.461668E-10 -1.365954E-03  2.967808E-04
       257 -1.399529E-05 -1.513464E-03 -1.503359E-05
       258  4.540750E-11 -1.402049E-03 -1.438440E-05
       259  1.399536E-05 -1.513462E-03 -1.503355E-05
       260  9.325893E-10 -1.428915E-03 -3.118220E-04
       261  1.149382E-11 -6.337483E-04  1.691091E-06

 forces (fx,fy,fz) for set NALL and time  0.5000000E-02

         5  1.105842E+00 -1.846462E+00 -1.632683E+00
         6 -1.105876E+00 -1.846428E+00 -1.632783E+00
         7  1.503091E+00 -5.810137E-01  1.635089E+00
         8 -1.503059E+00 -5.810460E-01  1.634989E+00
        21  5.890406E-01  6.162443E+00 -1.550708E+01
        22  3.290824E-05 -1.643462E+00 -3.238550E+00
        23 -5.890204E-01  6.162562E+00 -1.550701E+01
        24 -3.127168E+00  9.727410E+00 -7.183038E+00
        25  3.357636E-01 -5.968637E+00 -6.662304E-02
        26  2.688660E+00  9.206849E+00  7.414643E+00
        27  5.686260E-01  4.821148E+00  1.541052E+01
        28 -3.287464E-05  3.564955E-01  3.382662E+00
        29 -5.686459E-01  4.821025E+00  1.541059E+01
        30 -2.688537E+00  9.206869E+00  7.414708E+00
        31 -3.357659E-01 -5.968572E+00 -6.662241E-02
        32  3.127047E+00  9.727430E+00 -7.183102E+00
        44 -1.338959E+00  2.894086E+01  2.333657E+00
        45 -7.130189E-06 -6.080380E-01  1.525634E-01
        46  5.449963E-06  1.541473E+00 -4.634098E-01
        47 -1.911082E-06 -1.167011E+00  5.403038E-01
        48  2.088699E-06 -1.167010E+00  5.403044E-01
        49 -4.879418E-06  1.541474E+00 -4.634100E-01
        50  5.312553E-06 -6.080403E-01  1.525630E-01
        51  1.339172E+00  2.894108E+01  2.333322E+00
        74 -1.616712E-01  2.273213E+01 -1.783814E+00
        75  6.455012E-07 -6.081235E-01 -1.525356E-01
        76 -1.637178E-06  1.541534E+00  4.634018E-01
        77  4.013476E-06 -1.167024E+00 -5.403001E-01
        89  1.614696E-01  2.273233E+01 -1.783478E+00
        90 -3.467850E-06 -6.081198E-01 -1.525355E-01
        91  2.118740E-06  1.541534E+00  4.634020E-01
        92 -3.429489E-06 -1.167026E+00 -5.403000E-01
        98  3.682164E-05  1.720666E+01 -1.241128E+01
        99  2.406563E-01 -7.949960E-01  1.474150E-01
       100 -1.504622E-06 -1.054978E+01 -2.550353E-02
       101 -2.406541E-01 -7.950698E-01  1.474149E-01
       102 -3.760710E-05  1.767097E+01  1.251555E+01
       124 -3.765659E+00  1.092663E+01 -3.414824E+00
       125  9.638433E-05  5.021322E+01  5.570369E+00
       126  3.765599E+00  1.092641E+01 -3.414702E+00
       127  4.398413E-07 -1.216077E+00  3.051177E-01
       128  4.555948E-06 -2.615777E+00  9.358650E-01
       129 -1.977984E-07  3.082946E+00 -9.268166E-01
       130 -5.015415E-06 -2.615776E+00  9.358641E-01
       131  5.295606E-07 -2.334021E+00  1.080606E+00
       153  4.608042E-01 -7.762917E+01 -3.935469E+00
       154 -1.325875E+00  5.865618E+01  4.275347E-01
       155  2.906579E+00 -7.497942E+01  2.541683E+00
       156 -1.171845E-05 -1.216153E+00 -2.479032E-05
       157 -7.605970E-06 -2.615785E+00  7.018891E-01
       158  5.804411E-06  3.083006E+00  1.159813E-05
       159 -1.403044E-07 -2.615848E+00 -7.018921E-01
       160 -1.207354E-06 -2.334038E+00 -3.363759E-06
       182 -4.703006E+00  2.096984E+01  3.564683E+00
       183 -9.399464E-05  4.024083E+01 -3.776873E+00
       184  4.703067E+00  2.097008E+01  3.564804E+00
       185  1.291350E-06 -6.742573E+00 -3.050653E-01
       186  2.519862E-06 -8.142179E+00 -9.358385E-01
       187 -4.799364E-07 -2.443243E+00  9.268048E-01
       188 -2.877421E-06 -8.142177E+00 -9.358382E-01
       189  4.008576E-07 -7.860373E+00 -1.080595E+00
       211 -2.906821E+00 -7.497947E+01  2.541807E+00
       212  1.325896E+00  5.865637E+01  4.275351E-01
       213 -4.605883E-01 -7.762923E+01 -3.935594E+00
       214  9.293232E-06 -1.216154E+00 -2.298140E-05
       215 -1.518974E-06 -2.615846E+00 -7.018923E-01
       216 -4.644830E-06  3.083006E+00  1.076139E-05
       217  6.235279E-06 -2.615787E+00  7.018893E-01
       218  5.965328E-07 -2.334038E+00 -4.638752E-06
       250  5.607973E-05 -1.310407E+02 -9.846543E+00
       251 -1.797758E-01  4.573037E+01  1.939720E+00
       252  1.166323E-05  1.112343E+02  1.756094E+00
       253  1.797552E-01  4.573026E+01  1.939722E+00
       254 -5.519960E-05 -1.326151E+02  2.291058E+00
       255  3.291447E-06 -2.432314E+00 -6.072793E-05
       256  8.448437E-07 -5.231571E+00  1.403768E+00
       257  7.241229E-06 -5.231633E+00 -2.668031E-05
       258 -6.528287E-07  6.166016E+00  2.392898E-05
       259 -6.921143E-06 -5.231632E+00 -2.695568E-05
       260  1.693371E-06 -5.231707E+00 -1.403780E+00
       261 -4.982045E-07 -4.668080E+00 -9.360907E-06

 displacements (vx,vy,vz) for set NALL and time  0.1000000E-01

         5  0.000000E+00  0.000000E+00  0.000000E+00
         6  0.000000E+00  0.000000E+00  0.000000E+00
         7  0.000000E+00  0.000000E+00  0.000000E+00
         8  0.000000E+00  0.000000E+00  0.000000E+00
        21  0.000000E+00  0.000000E+00  0.000000E+00
        22  0.000000E+00  0.000000E+00  0.000000E+00
        23  0.000000E+00  0.000000E+00  0.000000E+00
        24  0.000000E+00  0.000000E+00  0.000000E+00
        25  0.000000E+00  0.000000E+00  0.000000E+00
        26  0.000000E+00  0.000000E+00  0.000000E+00
        27  0.000000E+00  0.000000E+00  0.000000E+00
        28  0.000000E+00  0.000000E+00  0.000000E+00
        29  0.000000E+00  0.000000E+00  0.000000E+00
        30  0.000000E+00  0.000000E+00  0.000000E+00
        31  0.000000E+00  0.000000E+00  0.000000E+00
        32  0.000000E+00  0.000000E+00  0.000000E+00
        44 -1.022751E-04  1.178227E-03 -1.257379E-04
        45 -6.848371E-06  9.369501E-04 -2.659749E-04
        46  4.042710E-05  7.921145E-04 -2.919437E-04
        47 -3.890713E-05  3.356792E-04 -2.078364E-04
        48  3.890735E-05  3.356794E-04 -2.078370E-04
        49 -4.042899E-05  7.921127E-04 -2.919443E-04
        50  6.849993E-06  9.369517E-04 -2.659680E-04
        51  1.022607E-04  1.178213E-03 -1.257138E-04
        74  8.833606E-05  1.277182E-03  1.512967E-04
        75 -1.132231E-05  9.700821E-04  2.737554E-04
        76 -2.720636E-05  7.715086E-04  2.940223E-04
        77  4.577082E-05  3.242500E-04  2.103203E-04
        89 -8.832172E-05  1.277167E-03  1.512725E-04
        90  1.132059E-05  9.700837E-04  2.737485E-04
        91  2.720822E-05  7.715067E-04  2.940228E-04
        92 -4.577105E-05  3.242503E-04  2.103209E-04
        98  0.000000E+00  0.000000E+00  0.000000E+00
        99  0.000000E+00  0.000000E+00  0.000000E+00
       100  0.000000E+00  0.000000E+00  0.000000E+00
       101  0.000000E+00  0.000000E+00  0.000000E+00
       102  0.000000E+00  0.000000E+00  0.000000E+00
       124  6.535787E-05  1.106260E-03 -6.530490E-05
       125 -2.639363E-09  1.175552E-03 -1.562801E-04
       126 -6.536655E-05  1.106268E-03 -6.531400E-05
       127  4.944161E-10  1.002822E-03 -2.255684E-04
       128 -2.363618E-05  7.797461E-04 -3.246864E-04
       129 -7.175968E-11  7.290799E-04 -3.118813E-04
       130  2.363511E-05  7.797467E-04 -3.246872E-04
       131 -5.838535E-11  3.435321E-04 -2.210949E-04
       153  3.059005E-05  1.313811E-03 -1.572767E-05
       154  1.723502E-05  1.054411E-03  6.242080E-06
       155 -2.262981E-05  1.343323E-03  3.342930E-05
       156  7.557778E-06  1.044730E-03  6.000915E-06
       157  1.777957E-06  7.038176E-04 -1.281741E-04
       158 -4.895583E-06  7.167200E-04  1.939136E-06
       159  2.456330E-07  6.981984E-04  1.307365E-04
       160 -2.354863E-06  3.110128E-04  3.490367E-07
       182  7.310760E-05  1.090626E-03  9.021909E-05
       183  2.559090E-09  1.274773E-03  1.835414E-04
       184 -7.309913E-05  1.090618E-03  9.021000E-05
       185 -5.229593E-10  1.021281E-03  2.294511E-04
       186 -2.072970E-05  7.944325E-04  3.322248E-04
       187  2.471119E-11  7.215080E-04  3.204165E-04
       188  2.073073E-05  7.944319E-04  3.322240E-04
       189  3.813130E-11  3.363492E-04  2.234826E-04
       211  2.263824E-05  1.343315E-03  3.342012E-05
       212 -1.723511E-05  1.054406E-03  6.242036E-06
       213 -3.059841E-05  1.313802E-03 -1.571857E-05
       214 -7.557873E-06  1.044731E-03  6.000898E-06
       215 -2.450521E-07  6.981973E-04  1.307358E-04
       216  4.895602E-06  7.167199E-04  1.939171E-06
       217 -1.778587E-06  7.038166E-04 -1.281733E-04
       218  2.354865E-06  3.110127E-04  3.490622E-07
       250 -2.241588E-09  1.255896E-03 -7.664744E-05
       251 -2.688601E-06  9.422990E-04 -8.167949E-06
       252 -1.902210E-11  1.086106E-03 -4.869969E-06
       253  2.688583E-06  9.423034E-04 -8.167949E-06
       254  2.166838E-09  1.306609E-03  9.978900E-05
       255 -1.338509E-11  1.048535E-03  1.934204E-06
       256  2.139773E-10  6.888451E-04 -1.317066E-04
       257  1.019214E-06  7.449041E-04  3.793220E-06
       258 -2.023232E-11  7.106833E-04  2.925909E-06
       259 -1.019236E-06  7.449037E-04  3.793205E-06
       260 -2.503488E-10  6.841125E-04  1.357372E-04
       261 -4.269920E-12  3.146201E-04  7.978993E-07

 forces (fx,fy,fz) for set NALL and time  0.1000000E-01

         5 -6.043063E-01  3.062437E-01  1.276000E+00
         6  6.043148E-01  3.062349E-01  1.276027E+00
         7 -7.091942E-01 -9.157136E-02 -1.297049E+00
         8  7.091858E-01 -9.156336E-02 -1.297022E+00
        21 -5.079076E-01 -3.072362E+00  7.508758E+00
        22 -8.965695E-06 -6.300373E-02  2.150699E+00
        23  5.079017E-01 -3.072395E+00  7.508741E+00
        24  1.277639E+00 -4.135711E+00  3.188479E+00
        25 -1.300750E-01  2.340236E+00  4.091729E-03
        26 -1.099543E+00 -3.934557E+00 -3.324399E+00
        27 -5.455555E-01 -2.532613E+00 -7.466535E+00
        28  8.666229E-06 -6.599860E-01 -2.171720E+00
        29  5.455616E-01 -2.532578E+00 -7.466553E+00
        30  1.099508E+00 -3.934563E+00 -3.324416E+00
        31  1.300755E-01  2.340218E+00  4.091277E-03
        32 -1.277606E+00 -4.135717E+00  3.188497E+00
        44  9.464809E-01 -1.303269E+01 -2.144040E+00
        45  6.104467E-06  5.208355E-01 -1.306834E-01
        46 -4.670092E-06 -1.320401E+00  3.969495E-01
        47  1.643126E-06  9.996432E-01 -4.628157E-01
        48 -1.795271E-06  9.996421E-01 -4.628162E-01
        49  4.181372E-06 -1.320402E+00  3.969497E-01
        50 -4.547509E-06  5.208375E-01 -1.306830E-01
        51 -9.465403E-01 -1.303275E+01 -2.143951E+00
        74 -2.137820E-01 -1.009180E+01  2.080492E+00
        75 -5.481446E-07  5.209087E-01  1.306595E-01
        76  1.402048E-06 -1.320454E+00 -3.969427E-01
        77 -3.443731E-06  9.996540E-01  4.628125E-01
        89  2.138362E-01 -1.009186E+01  2.080403E+00
        90  2.965724E-06  5.209055E-01  1.306595E-01
        91 -1.814546E-06 -1.320453E+00 -3.969428E-01
        92  2.943497E-06  9.996559E-01  4.628125E-01
        98 -8.021728E-06 -6.566432E+00  5.787310E+00
        99 -3.269610E-02  2.098984E-02 -9.165697E-03
       100  4.266261E-07  1.992280E+00  1.524600E-02
       101  3.269572E-02  2.100662E-02 -9.165856E-03
       102  8.947822E-06 -6.651395E+00 -6.065486E+00
       124  4.159584E+00 -4.728199E+00  3.648050E+00
       125 -2.865494E-05 -2.182792E+01 -4.345617E+00
       126 -4.159569E+00 -4.728139E+00  3.648004E+00
       127 -3.767611E-07  1.041672E+00 -2.613590E-01
       128 -3.903669E-06  2.240634E+00 -8.016472E-01
       129  1.694310E-07 -2.640803E+00  7.938965E-01
       130  4.297241E-06  2.240633E+00 -8.016464E-01
       131 -4.536134E-07  1.999285E+00 -9.256298E-01
       153  7.573791E-01  3.496625E+01  3.276426E+00
       154  6.544235E-01 -2.778494E+01 -2.825734E-02
       155 -2.059585E+00  3.334245E+01 -2.810501E+00
       156  1.003847E-05  1.041737E+00  2.122800E-05
       157  6.516800E-06  2.240640E+00 -6.012272E-01
       158 -4.973686E-06 -2.640854E+00 -9.929370E-06
       159  1.223124E-07  2.240694E+00  6.012297E-01
       160  1.036023E-06  1.999300E+00  2.881222E-06
       182  4.541584E+00 -8.687401E+00 -3.567694E+00
       183  2.807313E-05 -1.694283E+01  4.071526E+00
       184 -4.541600E+00 -8.687473E+00 -3.567738E+00
       185 -1.106150E-06  1.069527E+00  2.613141E-01
       186 -2.157479E-06  2.268408E+00  8.016245E-01
       187  4.111059E-07 -2.613210E+00 -7.938864E-01
       188  2.463758E-06  2.268406E+00  8.016242E-01
       189 -3.433683E-07  2.027017E+00  9.256210E-01
       211  2.059658E+00  3.334246E+01 -2.810548E+00
       212 -6.544326E-01 -2.778500E+01 -2.825767E-02
       213 -7.574389E-01  3.496627E+01  3.276472E+00
       214 -7.961071E-06  1.041738E+00  1.967851E-05
       215  1.299000E-06  2.240692E+00  6.012299E-01
       216  3.980408E-06 -2.640854E+00 -9.212637E-06
       217 -5.342687E-06  2.240641E+00 -6.012273E-01
       218 -5.128034E-07  1.999300E+00  3.973362E-06
       250 -2.223316E-05  5.664725E+01  3.273341E+00
       251  1.561616E-01 -2.060505E+01 -8.808307E-01
       252 -4.695122E-06 -4.596681E+01 -4.561815E-01
       253 -1.561535E-01 -2.060501E+01 -8.808317E-01
       254  1.979835E-05  5.628974E+01 -1.166694E+00
       255 -2.819402E-06  2.083481E+00  5.200447E-05
       256 -7.236801E-07  4.481281E+00 -1.202446E+00
       257 -6.206421E-06  4.481334E+00  2.284674E-05
       258  5.592028E-07 -5.281712E+00 -2.048610E-05
       259  5.932241E-06  4.481333E+00  2.308262E-05
       260 -1.450515E-06  4.481397E+00  1.202456E+00
       261  4.267542E-07  3.998604E+00  8.017883E-06

 displacements (vx,vy,vz) for set NALL and time  0.1500000E-01

         5  0.000000E+00  0.000000E+00  0.000000E+00
         6  0.000000E+00  0.000000E+00  0.000000E+00
         7  0.000000E+00  0.000000E+00  0.000000E+00
         8  0.000000E+00  0.000000E+00  0.000000E+00
        21  0.000000E+00  0.000000E+00  0.000000E+00
        22  0.000000E+00  0.000000E+00  0.000000E+00
        23  0.000000E+00  0.000000E+00  0.000000E+00
        24  0.000000E+00  0.000000E+00  0.000000E+00
        25  0.000000E+00  0.000000E+00  0.000000E+00
        26  0.000000E+00  0.000000E+00  0.000000E+00
        27  0.000000E+00  0.000000E+00  0.000000E+00
        28  0.000000E+00  0.000000E+00  0.000000E+00
        29  0.000000E+00  0.000000E+00  0.000000E+00
        30  0.000000E+00  0.000000E+00  0.000000E+00
        31  0.000000E+00  0.000000E+00  0.000000E+00
        32  0.000000E+00  0.000000E+00  0.000000E+00
        44  2.424699E-05 -1.204513E-03  1.641211E-04
        45  1.661636E-07 -9.253002E-04  2.741700E-04
        46 -1.727347E-05 -6.806903E-04  3.215041E-04
        47  4.049966E-05 -2.852623E-04  2.121602E-04
        48 -4.053347E-05 -2.852960E-04  2.122628E-04
        49  1.755000E-05 -6.804141E-04  3.215909E-04
        50 -4.226897E-07 -9.255561E-04  2.732835E-04
        51 -2.230975E-05 -1.202578E-03  1.609170E-04
        74 -4.621232E-07 -1.307123E-03 -1.632616E-04
        75  2.181484E-05 -9.658254E-04 -2.717826E-04
        76  4.326416E-06 -6.566051E-04 -3.181815E-04
        77 -4.710928E-05 -2.701906E-04 -2.118584E-04
        89 -1.475325E-06 -1.305188E-03 -1.600568E-04
        90 -2.155819E-05 -9.660813E-04 -2.708960E-04
        91 -4.602992E-06 -6.563288E-04 -3.182683E-04
        92  4.714311E-05 -2.702243E-04 -2.119611E-04
        98  0.000000E+00  0.000000E+00  0.000000E+00
        99  0.000000E+00  0.000000E+00  0.000000E+00
       100  0.000000E+00  0.000000E+00  0.000000E+00
       101  0.000000E+00  0.000000E+00  0.000000E+00
       102  0.000000E+00  0.000000E+00  0.000000E+00
       124  1.057722E-05 -1.104218E-03  1.692600E-04
       125  2.714219E-07 -1.243521E-03  1.448881E-04
       126 -9.496876E-06 -1.105323E-03  1.703893E-04
       127 -4.358223E-08 -9.196423E-04  2.739210E-04
       128  5.023134E-06 -7.130607E-04  3.249271E-04
       129 -1.095618E-08 -6.833418E-04  3.299031E-04
       130 -4.887839E-06 -7.131586E-04  3.250340E-04
       131  8.962854E-09 -2.903464E-04  2.018834E-04
       153 -1.989331E-05 -1.386640E-03  8.429091E-05
       154 -1.954548E-05 -1.160202E-03  3.290754E-07
       155  2.368695E-05 -1.409915E-03 -8.059730E-05
       156 -1.408272E-05 -9.625031E-04 -6.418171E-06
       157  1.982626E-06 -6.172874E-04  1.344717E-04
       158  9.909549E-06 -6.601991E-04 -1.627123E-07
       159 -1.439031E-06 -6.124621E-04 -1.328128E-04
       160  3.859062E-06 -2.535341E-04  1.323759E-06
       182 -3.777545E-06 -1.053970E-03 -1.659646E-04
       183 -2.713604E-07 -1.305981E-03 -1.388280E-04
       184  2.697275E-06 -1.052864E-03 -1.648350E-04
       185  4.359723E-08 -9.494347E-04 -2.597428E-04
       186  4.672222E-06 -7.244082E-04 -3.283133E-04
       187  1.099807E-08 -6.635798E-04 -3.342694E-04
       188 -4.807523E-06 -7.243103E-04 -3.282064E-04
       189 -8.942182E-09 -2.821535E-04 -2.037263E-04
       211 -2.479430E-05 -1.408835E-03 -7.946655E-05
       212  1.954564E-05 -1.159659E-03  3.290196E-07
       213  2.100048E-05 -1.385560E-03  8.316028E-05
       214  1.408281E-05 -9.625908E-04 -6.418152E-06
       215  1.341105E-06 -6.123265E-04 -1.327062E-04
       216 -9.909563E-06 -6.602204E-04 -1.627372E-07
       217 -1.884679E-06 -6.171519E-04  1.343652E-04
       218 -3.859072E-06 -2.535162E-04  1.323724E-06
       250  2.488229E-07 -1.255381E-03  1.819292E-05
       251  5.561463E-06 -9.366320E-04  1.141624E-05
       252  1.867892E-11 -9.590401E-04  4.071855E-06
       253 -5.561433E-06 -9.371301E-04  1.141629E-05
       254 -2.487712E-07 -1.283501E-03 -4.346930E-05
       255  2.203136E-12 -1.008485E-03  4.423584E-07
       256 -3.791247E-08 -6.009945E-04  1.559567E-04
       257 -3.817951E-06 -6.625581E-04 -1.264339E-06
       258  2.577259E-11 -6.006302E-04 -2.538470E-07
       259  3.817986E-06 -6.624825E-04 -1.264329E-06
       260  3.795667E-08 -5.915509E-04 -1.511332E-04
       261  1.803409E-12 -2.756123E-04 -1.304360E-06

 forces (fx,fy,fz) for set NALL and time  0.1500000E-01

         5  5.343397E-01 -7.988669E-01 -5.640039E-01
         6 -5.358118E-01 -7.973958E-01 -5.681240E-01
         7  6.122951E-01 -2.299531E-01  5.752313E-01
         8 -6.108228E-01 -2.314240E-01  5.711107E-01
        21  7.697160E-02  2.363903E+00 -7.135769E+00
        22  1.351991E-03 -5.001765E-01 -1.328505E+00
        23 -7.626003E-02  2.368750E+00 -7.133161E+00
        24 -1.555800E+00  4.449553E+00 -3.319669E+00
        25  8.488365E-02 -2.187815E+00 -2.532347E-02
        26  1.228516E+00  4.030072E+00  3.425210E+00
        27  3.142066E-01  1.681809E+00  7.020264E+00
        28 -1.352112E-03  3.180452E-01  1.305945E+00
        29 -3.149180E-01  1.676958E+00  7.022874E+00
        30 -1.223661E+00  4.030786E+00  3.427811E+00
        31 -8.488500E-02 -2.185119E+00 -2.532385E-02
        32  1.550947E+00  4.450266E+00 -3.322270E+00
        44 -2.745232E-01  1.467210E+01  2.717863E-01
        45 -4.849630E-06 -4.142316E-01  1.039354E-01
        46  3.717169E-06  1.050144E+00 -3.157029E-01
        47 -1.317463E-06 -7.950387E-01  3.680878E-01
        48  1.438468E-06 -7.950378E-01  3.680882E-01
        49 -3.328479E-06  1.050145E+00 -3.157030E-01
        50  3.611345E-06 -4.142332E-01  1.039351E-01
        51  2.828910E-01  1.468046E+01  2.578001E-01
        74 -2.275690E-01  1.078775E+01 -2.319484E-01
        75  4.280150E-07 -4.142899E-01 -1.039164E-01
        76 -1.115075E-06  1.050186E+00  3.156974E-01
        77  2.749301E-06 -7.950473E-01 -3.680852E-01
        89  2.192052E-01  1.079611E+01 -2.179574E-01
        90 -2.350770E-06 -4.142874E-01 -1.039164E-01
        91  1.443145E-06  1.050186E+00  3.156975E-01
        92 -2.351454E-06 -7.950488E-01 -3.680852E-01
        98  1.812984E-03  8.215341E+00 -5.560282E+00
        99 -1.003113E-01 -1.161913E+00 -6.717356E-02
       100 -1.053087E-06 -4.712475E+00 -1.372281E-01
       101  1.003122E-01 -1.165534E+00 -6.717332E-02
       102 -1.814265E-03  7.871374E+00  5.891543E+00
       124 -1.307468E-01  5.416589E+00  6.519322E-01
       125  3.452340E-03  2.560485E+01  6.801240E-01
       126  1.281347E-01  5.408073E+00  6.547394E-01
       127  2.996461E-07 -8.284637E-01  2.078645E-01
       128  3.106458E-06 -1.782026E+00  6.375680E-01
       129 -1.347527E-07  2.100289E+00 -6.314037E-01
       130 -3.419472E-06 -1.782025E+00  6.375674E-01
       131  3.607697E-07 -1.590077E+00  7.361743E-01
       153  1.017321E+00 -3.892153E+01 -8.653456E-01
       154 -4.879955E-01  2.870720E+01 -2.539866E-02
       155  1.158918E+00 -3.611492E+01  5.710956E-01
       156 -7.984269E-06 -8.285158E-01 -1.687276E-05
       157 -5.185444E-06 -1.782031E+00  4.781695E-01
       158  3.957926E-06  2.100330E+00  7.888985E-06
       159 -1.000638E-07 -1.782074E+00 -4.781715E-01
       160 -8.266337E-07 -1.590088E+00 -2.291185E-06
       182 -1.753802E+00  1.047008E+01 -4.512511E-01
       183 -3.452008E-03  1.927311E+01 -2.417783E-01
       184  1.756417E+00  1.047861E+01 -4.484455E-01
       185  8.797467E-07 -8.300446E-01 -2.078288E-01
       186  1.714724E-06 -1.783542E+00 -6.375500E-01
       187 -3.269613E-07  2.098917E+00  6.313956E-01
       188 -1.958318E-06 -1.783541E+00 -6.375497E-01
       189  2.730879E-07 -1.591559E+00 -7.361672E-01
       211 -1.167466E+00 -3.611753E+01  5.739292E-01
       212  4.880068E-01  2.871411E+01 -2.539715E-02
       213 -1.008790E+00 -3.892414E+01 -8.681821E-01
       214  6.332065E-06 -8.285162E-01 -1.564042E-05
       215 -1.030340E-06 -1.782073E+00 -4.781716E-01
       216 -3.167949E-06  2.100330E+00  7.318951E-06
       217  4.251648E-06 -1.782032E+00  4.781696E-01
       218  4.105052E-07 -1.590088E+00 -3.159788E-06
       250  1.181119E-03 -6.784432E+01 -5.771347E+00
       251  6.941496E-01  2.256094E+01  1.016010E+00
       252  6.161274E-06  5.651668E+01  4.330473E-01
       253 -6.941598E-01  2.255857E+01  1.016015E+00
       254 -1.178446E-03 -6.514263E+01  3.034591E+00
       255  2.242334E-06 -1.657037E+00 -4.133964E-05
       256  5.755617E-07 -3.564063E+00  9.563320E-01
       257  4.941270E-06 -3.564105E+00 -1.815975E-05
       258 -4.447466E-07  4.200663E+00  1.627652E-05
       259 -4.723208E-06 -3.564104E+00 -1.834735E-05
       260  1.153625E-06 -3.564155E+00 -9.563402E-01
       261 -3.394073E-07 -3.180180E+00 -6.375741E-06

 displacements (vx,vy,vz) for set NALL and time  0.2000000E-01

         5  0.000000E+00  0.000000E+00  0.000000E+00
         6  0.000000E+00  0.000000E+00  0.000000E+00
         7  0.000000E+00  0.000000E+00  0.000000E+00
         8  0.000000E+00  0.000000E+00  0.000000E+00
        21  0.000000E+00  0.000000E+00  0.000000E+00
        22  0.000000E+00  0.000000E+00  0.000000E+00
        23  0.000000E+00  0.000000E+00  0.000000E+00
        24  0.000000E+00  0.000000E+00  0.000000E+00
        25  0.000000E+00  0.000000E+00  0.000000E+00
        26  0.000000E+00  0.000000E+00  0.000000E+00
        27  0.000000E+00  0.000000E+00  0.000000E+00
        28  0.000000E+00  0.000000E+00  0.000000E+00
        29  0.000000E+00  0.000000E+00  0.000000E+00
        30  0.000000E+00  0.000000E+00  0.000000E+00
        31  0.000000E+00  0.000000E+00  0.000000E+00
        32  0.000000E+00  0.000000E+00  0.000000E+00
        44 -9.928576E-05  7.657983E-04 -9.170955E-05
        45 -1.351349E-05  6.062864E-04 -1.893860E-04
        46  2.440994E-05  5.132300E-04 -2.034199E-04
        47 -2.417080E-05  2.132657E-04 -1.369085E-04
        48  2.404427E-05  2.131393E-04 -1.365230E-04
        49 -2.337648E-05  5.142627E-04 -2.030941E-04
        50  1.255292E-05  6.053280E-04 -1.926811E-04
        51  1.064985E-04  7.730054E-04 -1.036348E-04
        74  9.494632E-05  8.233930E-04  9.706987E-05
        75 -2.033768E-06  6.325573E-04  1.885095E-04
        76 -1.451433E-05  4.968418E-04  2.025734E-04
        77  2.827141E-05  2.047790E-04  1.376453E-04
        89 -1.021606E-04  8.306022E-04  1.089978E-04
        90  2.994085E-06  6.315982E-04  1.918052E-04
        91  1.348050E-05  4.978750E-04  2.022476E-04
        92 -2.814483E-05  2.046527E-04  1.372598E-04
        98  0.000000E+00  0.000000E+00  0.000000E+00
        99  0.000000E+00  0.000000E+00  0.000000E+00
       100  0.000000E+00  0.000000E+00  0.000000E+00
       101  0.000000E+00  0.000000E+00  0.000000E+00
       102  0.000000E+00  0.000000E+00  0.000000E+00
       124  6.727353E-05  7.335466E-04 -6.570231E-05
       125  9.978457E-07  7.927381E-04 -1.115008E-04
       126 -6.326320E-05  7.294313E-04 -6.151168E-05
       127 -1.585903E-07  6.603311E-04 -1.586168E-04
       128 -1.522305E-05  5.055366E-04 -2.207925E-04
       129 -4.368930E-08  4.685334E-04 -2.138499E-04
       130  1.572579E-05  5.051697E-04 -2.203940E-04
       131  3.372348E-08  2.167544E-04 -1.459416E-04
       153  1.218953E-05  8.776051E-04 -2.343264E-05
       154  9.112776E-06  6.871159E-04 -1.603843E-06
       155 -1.006493E-05  8.902614E-04  2.913333E-05
       156  8.082940E-06  6.799250E-04  2.208720E-06
       157 -2.941413E-06  4.467184E-04 -8.887767E-05
       158 -5.435684E-06  4.579605E-04  1.299929E-06
       159  3.892923E-06  4.424830E-04  8.809639E-05
       160 -2.171082E-06  1.965379E-04  2.255714E-07
       182  7.286965E-05  7.072011E-04  6.679546E-05
       183 -9.981947E-07  8.551867E-04  1.241627E-04
       184 -7.688100E-05  7.113176E-04  7.098727E-05
       185  1.584886E-07  6.734337E-04  1.580270E-04
       186 -1.367052E-05  5.131178E-04  2.226916E-04
       187  4.353785E-08  4.602792E-04  2.145352E-04
       188  1.316742E-05  5.134850E-04  2.230901E-04
       189 -3.373217E-08  2.115806E-04  1.452570E-04
       211  5.945447E-06  8.942708E-04  3.332757E-05
       212 -9.112562E-06  6.891131E-04 -1.604373E-06
       213 -8.070339E-06  8.816138E-04 -2.762684E-05
       214 -8.083208E-06  6.796065E-04  2.208753E-06
       215 -4.260247E-06  4.429865E-04  8.849439E-05
       216  5.435736E-06  4.578750E-04  1.300026E-06
       217  3.308542E-06  4.472216E-04 -8.927539E-05
       218  2.171042E-06  1.966054E-04  2.255580E-07
       250  9.187090E-07  8.615247E-04 -5.675793E-05
       251 -6.825464E-07  6.234989E-04 -3.338908E-06