    1C
    1UUSER                                                              
    1UDATE              11.july.2018                                    
    1UTIME              16:02:12                                        
    1UHOST                                                              
    1UPGM               CalculiX                                        
    1UVERSION           Version 2.13                             
    1UCOMPILETIME       jue jun 14 00:40:39 CEST 2018                    
    1UDIR                                                               
    1UDBN                                                               
    1UMAT    1EL                                                        
    2C                            81                                     1
 -1         5 0.00000E+00 0.00000E+00 8.00000E+00
 -1         6 1.00000E+00 0.00000E+00 8.00000E+00
 -1         7 1.00000E+00 1.00000E+00 8.00000E+00
 -1         8 0.00000E+00 1.00000E+00 8.00000E+00
 -1        21 2.50000E-01 0.00000E+00 8.00000E+00
 -1        22 5.00000E-01 0.00000E+00 8.00000E+00
 -1        23 7.50000E-01 0.00000E+00 8.00000E+00
 -1        24 1.00000E+00 2.50000E-01 8.00000E+00
 -1        25 1.00000E+00 5.00000E-01 8.00000E+00
 -1        26 1.00000E+00 7.50000E-01 8.00000E+00
 -1        27 7.50000E-01 1.00000E+00 8.00000E+00
 -1        28 5.00000E-01 1.00000E+00 8.00000E+00
 -1        29 2.50000E-01 1.00000E+00 8.00000E+00
 -1        30 0.00000E+00 7.50000E-01 8.00000E+00
 -1        31 0.00000E+00 5.00000E-01 8.00000E+00
 -1        32 0.00000E+00 2.50000E-01 8.00000E+00
 -1        44 1.00000E+00 0.00000E+00 6.00000E+00
 -1        45 1.00000E+00 0.00000E+00 6.50000E+00
 -1        46 1.00000E+00 0.00000E+00 7.00000E+00
 -1        47 1.00000E+00 0.00000E+00 7.50000E+00
 -1        48 0.00000E+00 0.00000E+00 7.50000E+00
 -1        49 0.00000E+00 0.00000E+00 7.00000E+00
 -1        50 0.00000E+00 0.00000E+00 6.50000E+00
 -1        51 0.00000E+00 0.00000E+00 6.00000E+00
 -1        74 1.00000E+00 1.00000E+00 6.00000E+00
 -1        75 1.00000E+00 1.00000E+00 6.50000E+00
 -1        76 1.00000E+00 1.00000E+00 7.00000E+00
 -1        77 1.00000E+00 1.00000E+00 7.50000E+00
 -1        89 0.00000E+00 1.00000E+00 6.00000E+00
 -1        90 0.00000E+00 1.00000E+00 6.50000E+00
 -1        91 0.00000E+00 1.00000E+00 7.00000E+00
 -1        92 0.00000E+00 1.00000E+00 7.50000E+00
 -1        98 5.00000E-01 2.50000E-01 8.00000E+00
 -1        99 2.50000E-01 5.00000E-01 8.00000E+00
 -1       100 5.00000E-01 5.00000E-01 8.00000E+00
 -1       101 7.50000E-01 5.00000E-01 8.00000E+00
 -1       102 5.00000E-01 7.50000E-01 8.00000E+00
 -1       124 2.50000E-01 0.00000E+00 6.00000E+00
 -1       125 5.00000E-01 0.00000E+00 6.00000E+00
 -1       126 7.50000E-01 0.00000E+00 6.00000E+00
 -1       127 5.00000E-01 0.00000E+00 6.50000E+00
 -1       128 2.50000E-01 0.00000E+00 7.00000E+00
 -1       129 5.00000E-01 0.00000E+00 7.00000E+00
 -1       130 7.50000E-01 0.00000E+00 7.00000E+00
 -1       131 5.00000E-01 0.00000E+00 7.50000E+00
 -1       153 1.00000E+00 2.50000E-01 6.00000E+00
 -1       154 1.00000E+00 5.00000E-01 6.00000E+00
 -1       155 1.00000E+00 7.50000E-01 6.00000E+00
 -1       156 1.00000E+00 5.00000E-01 6.50000E+00
 -1       157 1.00000E+00 2.50000E-01 7.00000E+00
 -1       158 1.00000E+00 5.00000E-01 7.00000E+00
 -1       159 1.00000E+00 7.50000E-01 7.00000E+00
 -1       160 1.00000E+00 5.00000E-01 7.50000E+00
 -1       182 7.50000E-01 1.00000E+00 6.00000E+00
 -1       183 5.00000E-01 1.00000E+00 6.00000E+00
 -1       184 2.50000E-01 1.00000E+00 6.00000E+00
 -1       185 5.00000E-01 1.00000E+00 6.50000E+00
 -1       186 7.50000E-01 1.00000E+00 7.00000E+00
 -1       187 5.00000E-01 1.00000E+00 7.00000E+00
 -1       188 2.50000E-01 1.00000E+00 7.00000E+00
 -1       189 5.00000E-01 1.00000E+00 7.50000E+00
 -1       211 0.00000E+00 7.50000E-01 6.00000E+00
 -1       212 0.00000E+00 5.00000E-01 6.00000E+00
 -1       213 0.00000E+00 2.50000E-01 6.00000E+00
 -1       214 0.00000E+00 5.00000E-01 6.50000E+00
 -1       215 0.00000E+00 7.50000E-01 7.00000E+00
 -1       216 0.00000E+00 5.00000E-01 7.00000E+00
 -1       217 0.00000E+00 2.50000E-01 7.00000E+00
 -1       218 0.00000E+00 5.00000E-01 7.50000E+00
 -1       250 5.00000E-01 2.50000E-01 6.00000E+00
 -1       251 2.50000E-01 5.00000E-01 6.00000E+00
 -1       252 5.00000E-01 5.00000E-01 6.00000E+00
 -1       253 7.50000E-01 5.00000E-01 6.00000E+00
 -1       254 5.00000E-01 7.50000E-01 6.00000E+00
 -1       255 5.00000E-01 5.00000E-01 6.50000E+00
 -1       256 5.00000E-01 2.50000E-01 7.00000E+00
 -1       257 2.50000E-01 5.00000E-01 7.00000E+00
 -1       258 5.00000E-01 5.00000E-01 7.00000E+00
 -1       259 7.50000E-01 5.00000E-01 7.00000E+00
 -1       260 5.00000E-01 7.50000E-01 7.00000E+00
 -1       261 5.00000E-01 5.00000E-01 7.50000E+00
 -3
    3C                             8                                     1
 -1        25    4    0    1
 -2        51       125       252       212        49       129       258       216       124       250
 -2       251       213        50       127       255       214       128       256       257       217
 -1        26    4    0    1
 -2       125        44       154       252       129        46       158       258       126       153
 -2       253       250       127        45       156       255       130       157       259       256
 -1        27    4    0    1
 -2       212       252       183        89       216       258       187        91       251       254
 -2       184       211       214       255       185        90       257       260       188       215
 -1        28    4    0    1
 -2       252       154        74       183       258       158        76       187       253       155
 -2       182       254       255       156        75       185       259       159       186       260
 -1        29    4    0    1
 -2        49       129       258       216         5        22       100        31       128       256
 -2       257       217        48       131       261       218        21        98        99        32
 -1        30    4    0    1
 -2       129        46       158       258        22         6        25       100       130       157
 -2       259       256       131        47       160       261        23        24       101        98
 -1        31    4    0    1
 -2       216       258       187        91        31       100        28         8       257       260
 -2       188       215       218       261       189        92        99       102        29        30
 -1        32    4    0    1
 -2       258       158        76       187       100        25         7        28       259       159
 -2       186       260       261       160        77       189       101        26        27       102
 -3
    1PSTEP                         1           1           1          
  100CL  101 5.00000E-03          81                     1    1           1
 -4  DISP        4    1
 -5  D1          1    2    1    0
 -5  D2          1    2    2    0
 -5  D3          1    2    3    0
 -5  ALL         1    2    0    0    1ALL
 -1         5 0.00000E+00 0.00000E+00 0.00000E+00
 -1         6 0.00000E+00 0.00000E+00 0.00000E+00
 -1         7 0.00000E+00 0.00000E+00 0.00000E+00
 -1         8 0.00000E+00 0.00000E+00 0.00000E+00
 -1        21 0.00000E+00 0.00000E+00 0.00000E+00
 -1        22 0.00000E+00 0.00000E+00 0.00000E+00
 -1        23 0.00000E+00 0.00000E+00 0.00000E+00
 -1        24 0.00000E+00 0.00000E+00 0.00000E+00
 -1        25 0.00000E+00 0.00000E+00 0.00000E+00
 -1        26 0.00000E+00 0.00000E+00 0.00000E+00
 -1        27 0.00000E+00 0.00000E+00 0.00000E+00
 -1        28 0.00000E+00 0.00000E+00 0.00000E+00
 -1        29 0.00000E+00 0.00000E+00 0.00000E+00
 -1        30 0.00000E+00 0.00000E+00 0.00000E+00
 -1        31 0.00000E+00 0.00000E+00 0.00000E+00
 -1        32 0.00000E+00 0.00000E+00 0.00000E+00
 -1        44 5.48177E-05-2.16387E-03 1.58373E-04
 -1        45-2.86033E-05-1.80073E-03 4.15222E-04
 -1        46-6.41697E-05-1.40993E-03 5.17316E-04
 -1        47 7.87198E-05-6.19629E-04 3.90250E-04
 -1        48-7.87199E-05-6.19630E-04 3.90250E-04
 -1        49 6.41708E-05-1.40993E-03 5.17316E-04
 -1        50 2.86026E-05-1.80073E-03 4.15218E-04
 -1        51-5.48099E-05-2.16386E-03 1.58360E-04
 -1        74-1.07900E-05-2.30998E-03-1.94771E-04
 -1        75 4.66441E-05-1.85082E-03-4.46146E-04
 -1        76 4.16886E-05-1.42778E-03-5.39273E-04
 -1        77-1.00541E-04-5.84004E-04-4.01472E-04
 -1        89 1.07827E-05-2.30997E-03-1.94758E-04
 -1        90-4.66431E-05-1.85082E-03-4.46142E-04
 -1        91-4.16895E-05-1.42778E-03-5.39273E-04
 -1        92 1.00541E-04-5.84005E-04-4.01473E-04
 -1        98 0.00000E+00 0.00000E+00 0.00000E+00
 -1        99 0.00000E+00 0.00000E+00 0.00000E+00
 -1       100 0.00000E+00 0.00000E+00 0.00000E+00
 -1       101 0.00000E+00 0.00000E+00 0.00000E+00
 -1       102 0.00000E+00 0.00000E+00 0.00000E+00
 -1       124-1.89440E-05-2.02246E-03 9.33775E-05
 -1       125 1.57164E-09-2.16381E-03 2.09622E-04
 -1       126 1.89489E-05-2.02247E-03 9.33823E-05
 -1       127-2.29853E-10-1.80841E-03 3.85838E-04
 -1       128 3.21252E-05-1.41871E-03 5.66279E-04
 -1       129 8.69813E-11-1.36477E-03 5.51927E-04
 -1       130-3.21246E-05-1.41871E-03 5.66279E-04
 -1       131 3.88653E-11-6.31711E-04 3.89059E-04
 -1       153-4.70775E-05-2.41270E-03 3.82440E-05
 -1       154-1.19122E-05-2.07994E-03-1.95114E-05
 -1       155 4.95355E-05-2.46306E-03-8.41525E-05
 -1       156-5.16924E-06-1.90518E-03-2.92982E-05
 -1       157-5.41637E-06-1.31830E-03 2.08832E-04
 -1       158 1.83312E-05-1.37662E-03-8.48980E-06
 -1       159 3.67170E-05-1.34059E-03-2.24846E-04
 -1       160 9.15894E-06-5.67888E-04 5.66961E-06
 -1       182-1.71764E-05-1.97002E-03-1.28272E-04
 -1       183-1.31723E-09-2.31185E-03-2.41048E-04
 -1       184 1.71721E-05-1.97001E-03-1.28267E-04
 -1       185 3.64607E-10-1.90723E-03-4.06195E-04
 -1       186 2.78630E-05-1.54647E-03-5.99538E-04
 -1       187 1.80334E-12-1.51672E-03-5.91095E-04
 -1       188-2.78635E-05-1.54647E-03-5.99537E-04
 -1       189-6.33444E-12-6.69845E-04-4.07972E-04
 -1       211-4.95398E-05-2.46305E-03-8.41477E-05
 -1       212 1.19126E-05-2.07994E-03-1.95115E-05
 -1       213 4.70821E-05-2.41270E-03 3.82390E-05
 -1       214 5.16946E-06-1.90518E-03-2.92982E-05
 -1       215-3.67172E-05-1.34059E-03-2.24845E-04
 -1       216-1.83312E-05-1.37662E-03-8.48988E-06
 -1       217 5.41674E-06-1.31830E-03 2.08831E-04
 -1       218-9.15894E-06-5.67888E-04 5.66956E-06
 -1       250 1.33354E-09-2.20044E-03 4.01686E-05
 -1       251-3.88007E-06-1.76798E-03 8.23339E-07
 -1       252 1.03696E-10-1.82754E-03-9.95507E-06
 -1       253 3.88027E-06-1.76798E-03 8.23383E-07
 -1       254-1.08340E-09-2.29001E-03-1.35929E-04
 -1       255 6.48704E-11-1.94706E-03-2.05897E-05
 -1       256-7.55107E-11-1.27711E-03 2.39008E-04
 -1       257-1.19279E-05-1.38962E-03-1.38489E-05
 -1       258 4.44402E-11-1.30781E-03-1.38318E-05
 -1       259 1.19280E-05-1.38962E-03-1.38489E-05
 -1       260 1.56508E-10-1.34499E-03-2.55030E-04
 -1       261 9.95371E-12-6.04328E-04 2.29372E-06
 -3
    1PSTEP                         2           2           1          
  100CL  102 1.00000E-02          81                     1    2           1
 -4  DISP        4    1
 -5  D1          1    2    1    0
 -5  D2          1    2    2    0
 -5  D3          1    2    3    0
 -5  ALL         1    2    0    0    1ALL
 -1         5 0.00000E+00 0.00000E+00 0.00000E+00
 -1         6 0.00000E+00 0.00000E+00 0.00000E+00
 -1         7 0.00000E+00 0.00000E+00 0.00000E+00
 -1         8 0.00000E+00 0.00000E+00 0.00000E+00
 -1        21 0.00000E+00 0.00000E+00 0.00000E+00
 -1        22 0.00000E+00 0.00000E+00 0.00000E+00
 -1        23 0.00000E+00 0.00000E+00 0.00000E+00
 -1        24 0.00000E+00 0.00000E+00 0.00000E+00
 -1        25 0.00000E+00 0.00000E+00 0.00000E+00
 -1        26 0.00000E+00 0.00000E+00 0.00000E+00
 -1        27 0.00000E+00 0.00000E+00 0.00000E+00
 -1        28 0.00000E+00 0.00000E+00 0.00000E+00
 -1        29 0.00000E+00 0.00000E+00 0.00000E+00
 -1        30 0.00000E+00 0.00000E+00 0.00000E+00
 -1        31 0.00000E+00 0.00000E+00 0.00000E+00
 -1        32 0.00000E+00 0.00000E+00 0.00000E+00
 -1        44-8.67426E-05 1.03204E-03-9.52134E-05
 -1        45 6.47898E-06 8.66619E-04-2.08669E-04
 -1        46 3.76883E-05 7.30675E-04-2.51193E-04
 -1        47-3.72639E-05 3.23968E-04-1.94152E-04
 -1        48 3.72568E-05 3.23961E-04-1.94130E-04
 -1        49-3.76306E-05 7.30732E-04-2.51175E-04
 -1        50-6.53252E-06 8.66566E-04-2.08855E-04
 -1        51 8.71477E-05 1.03245E-03-9.58833E-05
 -1        74 7.49287E-05 1.08733E-03 1.01795E-04
 -1        75-1.77021E-05 8.86322E-04 2.08733E-04
 -1        76-3.01805E-05 7.18408E-04 2.51233E-04
 -1        77 4.08149E-05 3.17076E-04 1.94973E-04
 -1        89-7.53342E-05 1.08774E-03 1.02466E-04
 -1        90 1.77556E-05 8.86268E-04 2.08918E-04
 -1        91 3.01227E-05 7.18466E-04 2.51215E-04
 -1        92-4.08078E-05 3.17069E-04 1.94952E-04
 -1        98 0.00000E+00 0.00000E+00 0.00000E+00
 -1        99 0.00000E+00 0.00000E+00 0.00000E+00
 -1       100 0.00000E+00 0.00000E+00 0.00000E+00
 -1       101 0.00000E+00 0.00000E+00 0.00000E+00
 -1       102 0.00000E+00 0.00000E+00 0.00000E+00
 -1       124 5.65700E-05 9.96405E-04-4.40358E-05
 -1       125 5.70550E-08 1.04699E-03-1.17014E-04
 -1       126-5.63438E-05 9.96175E-04-4.37995E-05
 -1       127-9.19117E-09 9.05888E-04-1.76953E-04
 -1       128-2.21466E-05 7.19145E-04-2.79855E-04
 -1       129-2.25425E-09 6.84915E-04-2.68870E-04
 -1       130 2.21748E-05 7.19124E-04-2.79832E-04
 -1       131 1.85882E-09 3.32023E-04-2.03667E-04
 -1       153 2.14914E-05 1.12779E-03-1.49866E-05
 -1       154 7.74603E-06 9.53509E-04 3.16573E-07
 -1       155-1.84788E-05 1.14503E-03 2.13148E-05
 -1       156 4.14740E-06 9.48418E-04 9.81879E-07
 -1       157 4.04704E-06 6.73161E-04-1.09071E-04
 -1       158-2.83522E-06 6.83756E-04 5.80430E-07
 -1       159-3.48173E-06 6.69505E-04 1.08527E-04
 -1       160-1.34856E-06 2.99632E-04 1.39949E-07
 -1       182 5.72388E-05 9.83553E-04 5.13653E-05
 -1       183-5.71148E-08 1.09840E-03 1.26798E-04
 -1       184-5.74652E-05 9.83784E-04 5.16021E-05
 -1       185 9.20973E-09 9.16970E-04 1.78734E-04
 -1       186-2.01012E-05 7.26665E-04 2.82146E-04
 -1       187 2.20207E-09 6.79457E-04 2.71005E-04
 -1       188 2.00728E-05 7.26686E-04 2.82168E-04
 -1       189-1.86681E-09 3.27822E-04 2.03411E-04
 -1       211 1.82472E-05 1.14526E-03 2.15516E-05
 -1       212-7.74589E-06 9.53623E-04 3.16286E-07
 -1       213-2.12596E-05 1.12802E-03-1.52236E-05
 -1       214-4.14746E-06 9.48399E-04 9.81838E-07
 -1       215 3.46129E-06 6.69534E-04 1.08549E-04
 -1       216 2.83527E-06 6.83752E-04 5.80456E-07
 -1       217-4.02664E-06 6.73189E-04-1.09093E-04
 -1       218 1.34856E-06 2.99635E-04 1.39937E-07
 -1       250 5.22085E-08 1.08792E-03-4.75945E-05
 -1       251-2.10745E-07 8.63421E-04-4.13177E-06
 -1       252 3.89387E-11 9.64549E-04-2.19117E-06
 -1       253 2.10858E-07 8.63317E-04-4.13165E-06
 -1       254-5.22428E-08 1.11604E-03 5.28727E-05
 -1       255-5.75194E-12 9.52999E-04 3.12663E-07
 -1       256-7.90883E-09 6.57988E-04-1.16372E-04
 -1       257 5.06820E-07 6.99868E-04 8.13497E-07
 -1       258 4.70317E-12 6.70862E-04 4.15097E-07
 -1       259-5.06789E-07 6.99884E-04 8.13489E-07
 -1       260 7.90405E-09 6.54307E-04 1.17514E-04
 -1       261-7.29527E-12 3.05198E-04 2.79614E-08
 -3
    1PSTEP                         3           3           1          
  100CL  103 1.50000E-02          81                     1    3           1
 -4  DISP        4    1
 -5  D1          1    2    1    0
 -5  D2          1    2    2    0
 -5  D3          1    2    3    0
 -5  ALL         1    2    0    0    1ALL
 -1         5 0.00000E+00 0.00000E+00 0.00000E+00
 -1         6 0.00000E+00 0.00000E+00 0.00000E+00
 -1         7 0.00000E+00 0.00000E+00 0.00000E+00
 -1         8 0.00000E+00 0.00000E+00 0.00000E+00
 -1        21 0.00000E+00 0.00000E+00 0.00000E+00
 -1        22 0.00000E+00 0.00000E+00 0.00000E+00
 -1        23 0.00000E+00 0.00000E+00 0.00000E+00
 -1        24 0.00000E+00 0.00000E+00 0.00000E+00
 -1        25 0.00000E+00 0.00000E+00 0.00000E+00
 -1        26 0.00000E+00 0.00000E+00 0.00000E+00
 -1        27 0.00000E+00 0.00000E+00 0.00000E+00
 -1        28 0.00000E+00 0.00000E+00 0.00000E+00
 -1        29 0.00000E+00 0.00000E+00 0.00000E+00
 -1        30 0.00000E+00 0.00000E+00 0.00000E+00
 -1        31 0.00000E+00 0.00000E+00 0.00000E+00
 -1        32 0.00000E+00 0.00000E+00 0.00000E+00
 -1        44 4.56764E-05-1.21968E-03 1.72491E-04
 -1        45 9.43462E-06-9.19861E-04 2.93355E-04
 -1        46-2.32561E-05-6.98906E-04 3.20324E-04
 -1        47 3.97773E-05-2.87865E-04 2.09360E-04
 -1        48-3.97720E-05-2.87859E-04 2.09344E-04
 -1        49 2.32120E-05-6.98950E-04 3.20310E-04
 -1        50-9.39372E-06-9.19821E-04 2.93497E-04
 -1        51-4.59859E-05-1.21999E-03 1.73003E-04
 -1        74-2.75550E-05-1.30904E-03-1.71174E-04
 -1        75 1.11580E-05-9.55879E-04-2.88676E-04
 -1        76 1.04753E-05-6.76570E-04-3.16853E-04
 -1        77-4.51857E-05-2.74711E-04-2.09011E-04
 -1        89 2.78649E-05-1.30935E-03-1.71687E-04
 -1        90-1.11990E-05-9.55838E-04-2.88818E-04
 -1        91-1.04311E-05-6.76615E-04-3.16839E-04
 -1        92 4.51802E-05-2.74706E-04-2.08995E-04
 -1        98 0.00000E+00 0.00000E+00 0.00000E+00
 -1        99 0.00000E+00 0.00000E+00 0.00000E+00
 -1       100 0.00000E+00 0.00000E+00 0.00000E+00
 -1       101 0.00000E+00 0.00000E+00 0.00000E+00
 -1       102 0.00000E+00 0.00000E+00 0.00000E+00
 -1       124-1.27003E-05-1.11647E-03 1.62972E-04
 -1       125-4.34826E-08-1.23600E-03 1.73352E-04
 -1       126 1.25277E-05-1.11629E-03 1.62792E-04
 -1       127 6.90659E-09-9.43008E-04 2.77622E-04
 -1       128 1.02577E-05-7.19428E-04 3.33732E-04
 -1       129 1.76850E-09-6.80026E-04 3.35126E-04
 -1       130-1.02793E-05-7.19413E-04 3.33715E-04
 -1       131-1.43115E-09-2.92547E-04 2.06445E-04
 -1       153-3.13216E-05-1.40668E-03 7.40583E-05
 -1       154-1.38803E-05-1.16404E-03 2.31190E-06
 -1       155 3.49438E-05-1.42684E-03-6.96476E-05
 -1       156-1.24658E-05-9.80778E-04-3.85646E-06
 -1       157 3.79483E-06-6.22156E-04 1.37242E-04
 -1       158 8.79180E-06-6.57528E-04-1.07597E-07
 -1       159-3.62826E-06-6.17249E-04-1.35209E-04
 -1       160 3.38576E-06-2.56344E-04 9.97931E-07
 -1       182-2.33852E-05-1.07439E-03-1.60589E-04
 -1       183 4.34368E-08-1.29985E-03-1.68851E-04
 -1       184 2.35580E-05-1.07456E-03-1.60770E-04
 -1       185-7.03681E-09-9.67004E-04-2.67181E-04
 -1       186 8.83318E-06-7.29243E-04-3.34635E-04
 -1       187-1.73195E-09-6.63397E-04-3.36446E-04
 -1       188-8.81154E-06-7.29259E-04-3.34652E-04
 -1       189 1.42244E-09-2.85224E-04-2.06436E-04
 -1       211-3.47670E-05-1.42702E-03-6.98284E-05
 -1       212 1.38800E-05-1.16413E-03 2.31235E-06
 -1       213 3.11443E-05-1.40686E-03 7.42393E-05
 -1       214 1.24657E-05-9.80764E-04-3.85638E-06
 -1       215 3.64388E-06-6.17270E-04-1.35226E-04
 -1       216-8.79194E-06-6.57525E-04-1.07583E-07
 -1       217-3.81048E-06-6.22178E-04 1.37259E-04
 -1       218-3.38578E-06-2.56347E-04 9.97986E-07
 -1       250-3.98533E-08-1.27495E-03 5.70334E-05
 -1       251 2.67332E-06-9.42032E-04 8.04000E-06
 -1       252-1.54771E-10-1.00403E-03 2.59522E-06
 -1       253-2.67363E-06-9.41952E-04 8.03978E-06
 -1       254 3.97448E-08-1.30517E-03-6.88639E-05
 -1       255-3.52577E-11-1.01869E-03 4.54782E-07
 -1       256 6.03480E-09-6.04203E-04 1.52610E-04
 -1       257-3.26905E-06-6.70643E-04-1.02825E-07
 -1       258-4.07455E-11-6.10359E-04 5.43664E-07
 -1       259 3.26895E-06-6.70655E-04-1.02832E-07
 -1       260-6.08234E-09-5.96066E-04-1.49306E-04
 -1       261 5.98290E-12-2.73446E-04-6.04114E-07
 -3
    1PSTEP                         4           4           1          
  100CL  104 2.00000E-02          81                     1    4           1
 -4  DISP        4    1
 -5  D1          1    2    1    0
 -5  D2          1    2    2    0
 -5  D3          1    2    3    0
 -5  ALL         1    2    0    0    1ALL
 -1         5 0.00000E+00 0.00000E+00 0.00000E+00
 -1         6 0.00000E+00 0.00000E+00 0.00000E+00
 -1         7 0.00000E+00 0.00000E+00 0.00000E+00
 -1         8 0.00000E+00 0.00000E+00 0.00000E+00
 -1        21 0.00000E+00 0.00000E+00 0.00000E+00
 -1        22 0.00000E+00 0.00000E+00 0.00000E+00
 -1        23 0.00000E+00 0.00000E+00 0.00000E+00
 -1        24 0.00000E+00 0.00000E+00 0.00000E+00
 -1        25 0.00000E+00 0.00000E+00 0.00000E+00
 -1        26 0.00000E+00 0.00000E+00 0.00000E+00
 -1        27 0.00000E+00 0.00000E+00 0.00000E+00
 -1        28 0.00000E+00 0.00000E+00 0.00000E+00
 -1        29 0.00000E+00 0.00000E+00 0.00000E+00
 -1        30 0.00000E+00 0.00000E+00 0.00000E+00
 -1        31 0.00000E+00 0.00000E+00 0.00000E+00
 -1        32 0.00000E+00 0.00000E+00 0.00000E+00
 -1        44-7.50324E-05 7.56662E-04-9.01310E-05
 -1        45-7.43756E-06 6.09310E-04-1.76805E-04
 -1        46 2.22940E-05 4.97665E-04-2.00613E-04
 -1        47-2.53318E-05 2.12024E-04-1.39126E-04
 -1        48 2.53124E-05 2.12005E-04-1.39067E-04
 -1        49-2.21357E-05 4.97824E-04-2.00563E-04
 -1        50 7.29057E-06 6.09162E-04-1.77310E-04
 -1        51 7.61377E-05 7.57768E-04-9.19599E-05
 -1        74 6.81087E-05 7.97934E-04 8.58470E-05
 -1        75-5.26130E-06 6.29861E-04 1.71959E-04
 -1        76-1.44792E-05 4.84821E-04 1.98798E-04
 -1        77 2.79526E-05 2.05247E-04 1.39037E-04
 -1        89-6.92134E-05 7.99039E-04 8.76742E-05
 -1        90 5.40814E-06 6.29714E-04 1.72464E-04
 -1        91 1.43210E-05 4.84979E-04 1.98748E-04
 -1        92-2.79333E-05 2.05227E-04 1.38978E-04
 -1        98 0.00000E+00 0.00000E+00 0.00000E+00
 -1        99 0.00000E+00 0.00000E+00 0.00000E+00
 -1       100 0.00000E+00 0.00000E+00 0.00000E+00
 -1       101 0.00000E+00 0.00000E+00 0.00000E+00
 -1       102 0.00000E+00 0.00000E+00 0.00000E+00
 -1       124 4.78471E-05 7.23080E-04-7.20390E-05
 -1       125 1.53273E-07 7.79014E-04-1.00460E-04
 -1       126-4.72323E-05 7.22449E-04-7.13957E-05
 -1       127-2.44682E-08 6.44967E-04-1.53395E-04
 -1       128-1.39077E-05 4.94334E-04-2.13013E-04
 -1       129-6.54195E-09 4.65505E-04-2.08938E-04
 -1       130 1.39849E-05 4.94278E-04-2.12952E-04
 -1       131 5.14757E-09 2.16062E-04-1.44313E-04
 -1       153 1.27157E-05 8.59546E-04-3.57229E-05
 -1       154 4.41672E-06 7.08074E-04-3.20579E-06
 -1       155-1.43388E-05 8.68169E-04 3.42185E-05
 -1       156 6.83588E-06 6.63428E-04 3.51334E-07
 -1       157-1.95792E-06 4.46519E-04-8.59036E-05
 -1       158-4.82097E-06 4.60807E-04 3.81007E-07
 -1       159 1.95102E-06 4.43183E-04 8.40135E-05
 -1       160-1.69655E-06 1.93333E-04-5.76197E-08
 -1       182 5.22762E-05 6.98594E-04 6.68919E-05
 -1       183-1.53289E-07 8.14828E-04 9.72544E-05
 -1       184-5.28909E-05 6.99225E-04 6.75346E-05
 -1       185 2.44225E-08 6.56753E-04 1.50315E-04
 -1       186-1.21568E-05 4.98682E-04 2.12601E-04
 -1       187 6.52900E-09 4.56635E-04 2.07378E-04
 -1       188 1.20797E-05 4.98738E-04 2.12662E-04
 -1       189-5.17640E-09 2.12178E-04 1.42775E-04
 -1       211 1.37078E-05 8.68784E-04 3.48612E-05
 -1       212-4.41692E-06 7.08381E-04-3.20556E-06
 -1       213-1.20846E-05 8.60161E-04-3.63658E-05
 -1       214-6.83596E-06 6.63379E-04 3.51320E-07
 -1       215-2.00723E-06 4.43260E-04 8.40745E-05
 -1       216 4.82094E-06 4.60793E-04 3.81027E-07
 -1       217 2.01414E-06 4.46596E-04-8.59646E-05
 -1       218 1.69656E-06 1.93344E-04-5.75504E-08
 -1       250 1.41020E-07 8.27294E-04-4.40472E-05
 -1       251 7.02167E-07 6.28814E-04-1.08553E-06
 -1       252-7.67110E-11 7.17993E-04 1.03808E-06
 -1       253-7.02278E-07 6.28532E-04-1.08570E-06
 -1       254-1.41068E-07 8.45350E-04 4.18458E-05
 -1       255 6.95075E-12 6.77855E-04 2.02779E-07
 -1       256-2.17847E-08 4.37187E-04-9.11712E-05
 -1       257 1.64716E-06 4.75992E-04-7.76037E-07
 -1       258-5.05307E-11 4.49023E-04-8.09980E-07
 -1       259-1.64724E-06 4.76036E-04-7.76039E-07
 -1       260 2.17176E-08 4.32696E-04 9.04014E-05
 -1       261 4.19936E-12 1.96888E-04 2.52889E-08
 -3
    1PSTEP                         5           5           1          
  100CL  105 2.50000E-02          81                     1    5           1
 -4  DISP        4    1
 -5  D1          1    2    1    0
 -5  D2          1    2    2    0
 -5  D3          1    2    3    0
 -5  ALL         1    2    0    0    1ALL
 -1         5 0.00000E+00 0.00000E+00 0.00000E+00
 -1         6 0.00000E+00 0.00000E+00 0.00000E+00
 -1         7 0.00000E+00 0.00000E+00 0.00000E+00
 -1         8 0.00000E+00 0.00000E+00 0.00000E+00
 -1        21 0.00000E+00 0.00000E+00 0.00000E+00
 -1        22 0.00000E+00 0.00000E+00 0.00000E+00
 -1        23 0.00000E+00 0.00000E+00 0.00000E+00
 -1        24 0.00000E+00 0.00000E+00 0.00000E+00
 -1        25 0.00000E+00 0.00000E+00 0.00000E+00
 -1        26 0.00000E+00 0.00000E+00 0.00000E+00
 -1        27 0.00000E+00 0.00000E+00 0.00000E+00
 -1        28 0.00000E+00 0.00000E+00 0.00000E+00
 -1        29 0.00000E+00 0.00000E+00 0.00000E+00
 -1        30 0.00000E+00 0.00000E+00 0.00000E+00
 -1        31 0.00000E+00 0.00000E+00 0.00000E+00
 -1        32 0.00000E+00 0.00000E+00 0.00000E+00
 -1        44 4.88903E-05-5.86409E-04 7.67639E-05
 -1        45-2.74252E-07-4.63748E-04 1.31796E-04
 -1        46-1.34040E-05-3.73919E-04 1.52664E-04
 -1        47 1.92826E-05-1.58502E-04 1.05259E-04
 -1        48-1.94063E-05-1.58626E-04 1.05637E-04
 -1        49 1.44156E-05-3.72910E-04 1.52983E-04
 -1        50-6.67263E-07-4.64684E-04 1.28566E-04
 -1        51-4.18218E-05-5.79350E-04 6.50785E-05
 -1        74-3.28719E-05-6.44748E-04-8.13062E-05
 -1        75 9.88823E-06-4.81288E-04-1.31912E-04
 -1        76 7.01341E-06-3.62798E-04-1.51395E-04
 -1        77-2.26016E-05-1.51570E-04-1.05360E-04
 -1        89 2.57938E-05-6.37673E-04-6.96011E-05
 -1        90-8.94796E-06-4.82230E-04-1.28678E-04
 -1        91-8.02749E-06-3.61784E-04-1.51714E-04
 -1        92 2.27258E-05-1.51693E-04-1.05737E-04
 -1        98 0.00000E+00 0.00000E+00 0.00000E+00
 -1        99 0.00000E+00 0.00000E+00 0.00000E+00
 -1       100 0.00000E+00 0.00000E+00 0.00000E+00
 -1       101 0.00000E+00 0.00000E+00 0.00000E+00
 -1       102 0.00000E+00 0.00000E+00 0.00000E+00
 -1       124-2.12192E-05-5.45735E-04 5.17622E-05
 -1       125 9.79906E-07-5.97124E-04 6.71248E-05
 -1       126 2.51514E-05-5.49765E-04 5.58697E-05
 -1       127-1.56276E-07-4.80492E-04 1.19242E-04
 -1       128 7.78187E-06-3.75547E-04 1.60267E-04
 -1       129-4.28031E-08-3.55634E-04 1.57180E-04
 -1       130-7.28984E-06-3.75905E-04 1.60658E-04
 -1       131 3.30126E-08-1.62186E-04 1.06255E-04
 -1       153-5.04492E-06-6.59766E-04 2.91936E-05
 -1       154-1.04384E-05-5.36662E-04-2.44398E-06
 -1       155 5.38422E-06-6.76573E-04-2.89951E-05
 -1       156-5.18669E-06-5.01034E-04-2.83074E-06
 -1       157 5.71315E-07-3.35636E-04 6.51924E-05
 -1       158 3.53649E-06-3.48007E-04 1.79257E-07
 -1       159-8.13381E-07-3.33153E-04-6.51772E-05
 -1       160 1.66528E-06-1.45306E-04 6.94108E-07
 -1       182-2.76172E-05-5.33675E-04-6.16076E-05
 -1       183-9.81858E-07-6.35315E-04-6.80178E-05
 -1       184 2.36794E-05-5.29634E-04-5.74910E-05
 -1       185 1.55959E-07-4.93436E-04-1.14587E-04
 -1       186 6.73607E-06-3.82331E-04-1.61858E-04
 -1       187 4.18011E-08-3.47353E-04-1.60069E-04
 -1       188-7.23055E-06-3.81971E-04-1.61467E-04
 -1       189-3.29816E-08-1.58067E-04-1.07320E-04
 -1       211-9.42437E-06-6.72637E-04-2.48797E-05
 -1       212 1.04420E-05-5.34698E-04-2.44871E-06
 -1       213 9.08469E-06-6.55836E-04 2.50776E-05
 -1       214 5.18516E-06-5.01348E-04-2.83071E-06
 -1       215 4.53333E-07-3.32658E-04-6.47864E-05
 -1       216-3.53598E-06-3.48089E-04 1.79761E-07
 -1       217-2.12152E-07-3.35144E-04 6.48034E-05
 -1       218-1.66564E-06-1.45240E-04 6.93904E-07
 -1       250 9.01350E-07-6.22554E-04 1.63175E-05
 -1       251 2.43903E-06-4.66843E-04 6.05852E-06
 -1       252-4.01786E-10-5.15834E-04 3.08677E-06
 -1       253-2.43829E-06-4.68649E-04 6.05965E-06
 -1       254-9.03355E-07-6.41096E-04-2.70251E-05
 -1       255-2.95066E-10-5.13475E-04 1.12908E-07
 -1       256-1.39616E-07-3.27988E-04 7.13698E-05
 -1       257-1.03293E-06-3.55748E-04-9.30476E-07
 -1       258-1.67535E-10-3.34061E-04-2.67134E-07
 -1       259 1.03316E-06-3.55470E-04-9.30411E-07
 -1       260 1.39132E-07-3.23690E-04-7.00924E-05
 -1       261-1.38356E-10-1.50282E-04-3.25371E-07
 -3
    1PSTEP                         6           6           1          
  100CL  106 3.00000E-02          81                     1    6           1
 -4  DISP        4    1
 -5  D1          1    2    1    0
 -5  D2          1    2    2    0
 -5  D3          1    2    3    0
 -5  ALL         1    2    0    0    1ALL
 -1         5 0.00000E+00 0.00000E+00 0.00000E+00
 -1         6 0.00000E+00 0.00000E+00 0.00000E+00
 -1         7 0.00000E+00 0.00000E+00 0.00000E+00
 -1         8 0.00000E+00 0.00000E+00 0.00000E+00
 -1        21 0.00000E+00 0.00000E+00 0.00000E+00
 -1        22 0.00000E+00 0.00000E+00 0.00000E+00
 -1        23 0.00000E+00 0.00000E+00 0.00000E+00
 -1        24 0.00000E+00 0.00000E+00 0.00000E+00
 -1        25 0.00000E+00 0.00000E+00 0.00000E+00
 -1        26 0.00000E+00 0.00000E+00 0.00000E+00
 -1        27 0.00000E+00 0.00000E+00 0.00000E+00
 -1        28 0.00000E+00 0.00000E+00 0.00000E+00
 -1        29 0.00000E+00 0.00000E+00 0.00000E+00
 -1        30 0.00000E+00 0.00000E+00 0.00000E+00
 -1        31 0.00000E+00 0.00000E+00 0.00000E+00
 -1        32 0.00000E+00 0.00000E+00 0.00000E+00
 -1        44 2.60347E-05 6.45340E-04-7.78020E-05
 -1        45-9.10631E-06 4.74002E-04-1.56906E-04
 -1        46 1.05831E-05 3.29455E-04-1.72971E-04
 -1        47-2.15337E-05 1.32968E-04-1.09148E-04