    1C
    1UUSER                                                              
    1UDATE              11.july.2018                                    
    1UTIME              15:59:15                                        
    1UHOST                                                              
    1UPGM               CalculiX                                        
    1UVERSION           Version 2.13                             
    1UCOMPILETIME       jue jun 14 00:40:39 CEST 2018                    
    1UDIR                                                               
    1UDBN                                                               
    1UMAT    1EL                                                        
    2C                            81                                     1
 -1         5 0.00000E+00 0.00000E+00 8.00000E+00
 -1         6 1.00000E+00 0.00000E+00 8.00000E+00
 -1         7 1.00000E+00 1.00000E+00 8.00000E+00
 -1         8 0.00000E+00 1.00000E+00 8.00000E+00
 -1        21 2.50000E-01 0.00000E+00 8.00000E+00
 -1        22 5.00000E-01 0.00000E+00 8.00000E+00
 -1        23 7.50000E-01 0.00000E+00 8.00000E+00
 -1        24 1.00000E+00 2.50000E-01 8.00000E+00
 -1        25 1.00000E+00 5.00000E-01 8.00000E+00
 -1        26 1.00000E+00 7.50000E-01 8.00000E+00
 -1        27 7.50000E-01 1.00000E+00 8.00000E+00
 -1        28 5.00000E-01 1.00000E+00 8.00000E+00
 -1        29 2.50000E-01 1.00000E+00 8.00000E+00
 -1        30 0.00000E+00 7.50000E-01 8.00000E+00
 -1        31 0.00000E+00 5.00000E-01 8.00000E+00
 -1        32 0.00000E+00 2.50000E-01 8.00000E+00
 -1        44 1.00000E+00 0.00000E+00 6.00000E+00
 -1        45 1.00000E+00 0.00000E+00 6.50000E+00
 -1        46 1.00000E+00 0.00000E+00 7.00000E+00
 -1        47 1.00000E+00 0.00000E+00 7.50000E+00
 -1        48 0.00000E+00 0.00000E+00 7.50000E+00
 -1        49 0.00000E+00 0.00000E+00 7.00000E+00
 -1        50 0.00000E+00 0.00000E+00 6.50000E+00
 -1        51 0.00000E+00 0.00000E+00 6.00000E+00
 -1        74 1.00000E+00 1.00000E+00 6.00000E+00
 -1        75 1.00000E+00 1.00000E+00 6.50000E+00
 -1        76 1.00000E+00 1.00000E+00 7.00000E+00
 -1        77 1.00000E+00 1.00000E+00 7.50000E+00
 -1        89 0.00000E+00 1.00000E+00 6.00000E+00
 -1        90 0.00000E+00 1.00000E+00 6.50000E+00
 -1        91 0.00000E+00 1.00000E+00 7.00000E+00
 -1        92 0.00000E+00 1.00000E+00 7.50000E+00
 -1        98 5.00000E-01 2.50000E-01 8.00000E+00
 -1        99 2.50000E-01 5.00000E-01 8.00000E+00
 -1       100 5.00000E-01 5.00000E-01 8.00000E+00
 -1       101 7.50000E-01 5.00000E-01 8.00000E+00
 -1       102 5.00000E-01 7.50000E-01 8.00000E+00
 -1       124 2.50000E-01 0.00000E+00 6.00000E+00
 -1       125 5.00000E-01 0.00000E+00 6.00000E+00
 -1       126 7.50000E-01 0.00000E+00 6.00000E+00
 -1       127 5.00000E-01 0.00000E+00 6.50000E+00
 -1       128 2.50000E-01 0.00000E+00 7.00000E+00
 -1       129 5.00000E-01 0.00000E+00 7.00000E+00
 -1       130 7.50000E-01 0.00000E+00 7.00000E+00
 -1       131 5.00000E-01 0.00000E+00 7.50000E+00
 -1       153 1.00000E+00 2.50000E-01 6.00000E+00
 -1       154 1.00000E+00 5.00000E-01 6.00000E+00
 -1       155 1.00000E+00 7.50000E-01 6.00000E+00
 -1       156 1.00000E+00 5.00000E-01 6.50000E+00
 -1       157 1.00000E+00 2.50000E-01 7.00000E+00
 -1       158 1.00000E+00 5.00000E-01 7.00000E+00
 -1       159 1.00000E+00 7.50000E-01 7.00000E+00
 -1       160 1.00000E+00 5.00000E-01 7.50000E+00
 -1       182 7.50000E-01 1.00000E+00 6.00000E+00
 -1       183 5.00000E-01 1.00000E+00 6.00000E+00
 -1       184 2.50000E-01 1.00000E+00 6.00000E+00
 -1       185 5.00000E-01 1.00000E+00 6.50000E+00
 -1       186 7.50000E-01 1.00000E+00 7.00000E+00
 -1       187 5.00000E-01 1.00000E+00 7.00000E+00
 -1       188 2.50000E-01 1.00000E+00 7.00000E+00
 -1       189 5.00000E-01 1.00000E+00 7.50000E+00
 -1       211 0.00000E+00 7.50000E-01 6.00000E+00
 -1       212 0.00000E+00 5.00000E-01 6.00000E+00
 -1       213 0.00000E+00 2.50000E-01 6.00000E+00
 -1       214 0.00000E+00 5.00000E-01 6.50000E+00
 -1       215 0.00000E+00 7.50000E-01 7.00000E+00
 -1       216 0.00000E+00 5.00000E-01 7.00000E+00
 -1       217 0.00000E+00 2.50000E-01 7.00000E+00
 -1       218 0.00000E+00 5.00000E-01 7.50000E+00
 -1       250 5.00000E-01 2.50000E-01 6.00000E+00
 -1       251 2.50000E-01 5.00000E-01 6.00000E+00
 -1       252 5.00000E-01 5.00000E-01 6.00000E+00
 -1       253 7.50000E-01 5.00000E-01 6.00000E+00
 -1       254 5.00000E-01 7.50000E-01 6.00000E+00
 -1       255 5.00000E-01 5.00000E-01 6.50000E+00
 -1       256 5.00000E-01 2.50000E-01 7.00000E+00
 -1       257 2.50000E-01 5.00000E-01 7.00000E+00
 -1       258 5.00000E-01 5.00000E-01 7.00000E+00
 -1       259 7.50000E-01 5.00000E-01 7.00000E+00
 -1       260 5.00000E-01 7.50000E-01 7.00000E+00
 -1       261 5.00000E-01 5.00000E-01 7.50000E+00
 -3
    3C                             8                                     1
 -1        25    4    0    1
 -2        51       125       252       212        49       129       258       216       124       250
 -2       251       213        50       127       255       214       128       256       257       217
 -1        26    4    0    1
 -2       125        44       154       252       129        46       158       258       126       153
 -2       253       250       127        45       156       255       130       157       259       256
 -1        27    4    0    1
 -2       212       252       183        89       216       258       187        91       251       254
 -2       184       211       214       255       185        90       257       260       188       215
 -1        28    4    0    1
 -2       252       154        74       183       258       158        76       187       253       155
 -2       182       254       255       156        75       185       259       159       186       260
 -1        29    4    0    1
 -2        49       129       258       216         5        22       100        31       128       256
 -2       257       217        48       131       261       218        21        98        99        32
 -1        30    4    0    1
 -2       129        46       158       258        22         6        25       100       130       157
 -2       259       256       131        47       160       261        23        24       101        98
 -1        31    4    0    1
 -2       216       258       187        91        31       100        28         8       257       260
 -2       188       215       218       261       189        92        99       102        29        30
 -1        32    4    0    1
 -2       258       158        76       187       100        25         7        28       259       159
 -2       186       260       261       160        77       189       101        26        27       102
 -3
    1PSTEP                         1           1           1          
  100CL  101 5.00000E-03          81                     1    1           1
 -4  DISP        4    1
 -5  D1          1    2    1    0
 -5  D2          1    2    2    0
 -5  D3          1    2    3    0
 -5  ALL         1    2    0    0    1ALL
 -1         5 0.00000E+00 0.00000E+00 0.00000E+00
 -1         6 0.00000E+00 0.00000E+00 0.00000E+00
 -1         7 0.00000E+00 0.00000E+00 0.00000E+00
 -1         8 0.00000E+00 0.00000E+00 0.00000E+00
 -1        21 0.00000E+00 0.00000E+00 0.00000E+00
 -1        22 0.00000E+00 0.00000E+00 0.00000E+00
 -1        23 0.00000E+00 0.00000E+00 0.00000E+00
 -1        24 0.00000E+00 0.00000E+00 0.00000E+00
 -1        25 0.00000E+00 0.00000E+00 0.00000E+00
 -1        26 0.00000E+00 0.00000E+00 0.00000E+00
 -1        27 0.00000E+00 0.00000E+00 0.00000E+00
 -1        28 0.00000E+00 0.00000E+00 0.00000E+00
 -1        29 0.00000E+00 0.00000E+00 0.00000E+00
 -1        30 0.00000E+00 0.00000E+00 0.00000E+00
 -1        31 0.00000E+00 0.00000E+00 0.00000E+00
 -1        32 0.00000E+00 0.00000E+00 0.00000E+00
 -1        44 8.08803E-05-2.56813E-03 2.60743E-04
 -1        45-3.64446E-06-2.02599E-03 5.56009E-04
 -1        46-5.93715E-05-1.55173E-03 6.45689E-04
 -1        47 8.63423E-05-6.52993E-04 4.44044E-04
 -1        48-8.63431E-05-6.52994E-04 4.44047E-04
 -1        49 5.93784E-05-1.55173E-03 6.45692E-04
 -1        50 3.63840E-06-2.02599E-03 5.55985E-04
 -1        51-8.08294E-05-2.56808E-03 2.60659E-04
 -1        74-2.21573E-05-2.77679E-03-2.97002E-04
 -1        75 3.57993E-05-2.10218E-03-5.86245E-04
 -1        76 2.87381E-05-1.55402E-03-6.66410E-04
 -1        77-1.12505E-04-6.08537E-04-4.55695E-04
 -1        89 2.21071E-05-2.77674E-03-2.96917E-04
 -1        90-3.57929E-05-2.10218E-03-5.86221E-04
 -1        91-2.87449E-05-1.55401E-03-6.66412E-04
 -1        92 1.12506E-04-6.08538E-04-4.55697E-04
 -1        98 0.00000E+00 0.00000E+00 0.00000E+00
 -1        99 0.00000E+00 0.00000E+00 0.00000E+00
 -1       100 0.00000E+00 0.00000E+00 0.00000E+00
 -1       101 0.00000E+00 0.00000E+00 0.00000E+00
 -1       102 0.00000E+00 0.00000E+00 0.00000E+00
 -1       124-2.42165E-05-2.35963E-03 2.16631E-04
 -1       125 8.38800E-09-2.57125E-03 2.92506E-04
 -1       126 2.42461E-05-2.35966E-03 2.16662E-04
 -1       127-1.43577E-09-2.05719E-03 5.22654E-04
 -1       128 2.87053E-05-1.57682E-03 6.85254E-04
 -1       129 2.68153E-11-1.49999E-03 6.78003E-04
 -1       130-2.87016E-05-1.57682E-03 6.85256E-04
 -1       131 2.14061E-10-6.63685E-04 4.38729E-04
 -1       153-5.94220E-05-2.92902E-03 9.50336E-05
 -1       154-2.66422E-05-2.45056E-03-2.18971E-05
 -1       155 6.23169E-05-2.99257E-03-1.42361E-04
 -1       156-1.40388E-05-2.15100E-03-3.39489E-05
 -1       157 4.29543E-06-1.41038E-03 2.63703E-04
 -1       158 2.41191E-05-1.48805E-03-9.38804E-06
 -1       159 2.65970E-05-1.42957E-03-2.79664E-04
 -1       160 1.16938E-05-5.92150E-04 6.08587E-06
 -1       182-3.10029E-05-2.27747E-03-2.52106E-04
 -1       183-8.10193E-09-2.76388E-03-3.25295E-04
 -1       184 3.09740E-05-2.27744E-03-2.52075E-04
 -1       185 1.56635E-09-2.17290E-03-5.36517E-04
 -1       186 2.43393E-05-1.71169E-03-7.20583E-04
 -1       187 7.82940E-11-1.64068E-03-7.19261E-04
 -1       188-2.43428E-05-1.71169E-03-7.20580E-04
 -1       189-1.80833E-10-6.96916E-04-4.58731E-04
 -1       211-6.23460E-05-2.99254E-03-1.42330E-04
 -1       212 2.66426E-05-2.45054E-03-2.18971E-05
 -1       213 5.94514E-05-2.92899E-03 9.50025E-05
 -1       214 1.40391E-05-2.15100E-03-3.39489E-05
 -1       215-2.65992E-05-1.42956E-03-2.79661E-04
 -1       216-2.41191E-05-1.48805E-03-9.38813E-06
 -1       217-4.29303E-06-1.41038E-03 2.63700E-04
 -1       218-1.16938E-05-5.92149E-04 6.08582E-06
 -1       250 7.33594E-09-2.65167E-03 7.34680E-05
 -1       251 3.48488E-07-2.03170E-03 4.91961E-06
 -1       252 9.50277E-11-2.13414E-03-9.61696E-06
 -1       253-3.48293E-07-2.03172E-03 4.91966E-06
 -1       254-7.06627E-09-2.76002E-03-1.82062E-04
 -1       255 6.51534E-11-2.22072E-03-2.17514E-05
 -1       256-8.46167E-10-1.36595E-03 2.96781E-04
 -1       257-1.39953E-05-1.51346E-03-1.50336E-05
 -1       258 4.54075E-11-1.40205E-03-1.43844E-05
 -1       259 1.39954E-05-1.51346E-03-1.50335E-05
 -1       260 9.32589E-10-1.42892E-03-3.11822E-04
 -1       261 1.14938E-11-6.33748E-04 1.69109E-06
 -3
    1PSTEP                         2           2           1          
  100CL  102 1.00000E-02          81                     1    2           1
 -4  DISP        4    1
 -5  D1          1    2    1    0
 -5  D2          1    2    2    0
 -5  D3          1    2    3    0
 -5  ALL         1    2    0    0    1ALL
 -1         5 0.00000E+00 0.00000E+00 0.00000E+00
 -1         6 0.00000E+00 0.00000E+00 0.00000E+00
 -1         7 0.00000E+00 0.00000E+00 0.00000E+00
 -1         8 0.00000E+00 0.00000E+00 0.00000E+00
 -1        21 0.00000E+00 0.00000E+00 0.00000E+00
 -1        22 0.00000E+00 0.00000E+00 0.00000E+00
 -1        23 0.00000E+00 0.00000E+00 0.00000E+00
 -1        24 0.00000E+00 0.00000E+00 0.00000E+00
 -1        25 0.00000E+00 0.00000E+00 0.00000E+00
 -1        26 0.00000E+00 0.00000E+00 0.00000E+00
 -1        27 0.00000E+00 0.00000E+00 0.00000E+00
 -1        28 0.00000E+00 0.00000E+00 0.00000E+00
 -1        29 0.00000E+00 0.00000E+00 0.00000E+00
 -1        30 0.00000E+00 0.00000E+00 0.00000E+00
 -1        31 0.00000E+00 0.00000E+00 0.00000E+00
 -1        32 0.00000E+00 0.00000E+00 0.00000E+00
 -1        44-6.70288E-05 1.19276E-03-1.33350E-04
 -1        45 2.31625E-06 9.67956E-04-2.61774E-04
 -1        46 3.53481E-05 7.77208E-04-2.98458E-04
 -1        47-4.28086E-05 3.36750E-04-2.16432E-04
 -1        48 4.28115E-05 3.36753E-04-2.16441E-04
 -1        49-3.53717E-05 7.77185E-04-2.98465E-04
 -1        50-2.29462E-06 9.67978E-04-2.61695E-04
 -1        51 6.68585E-05 1.19259E-03-1.33068E-04
 -1        74 4.99149E-05 1.27646E-03 1.39348E-04
 -1        75-1.83140E-05 9.97237E-04 2.61367E-04
 -1        76-2.50715E-05 7.59159E-04 2.96392E-04
 -1        77 4.79474E-05 3.25610E-04 2.16604E-04
 -1        89-4.97448E-05 1.27629E-03 1.39066E-04
 -1        90 1.82923E-05 9.97258E-04 2.61288E-04
 -1        91 2.50951E-05 7.59136E-04 2.96399E-04
 -1        92-4.79502E-05 3.25613E-04 2.16613E-04
 -1        98 0.00000E+00 0.00000E+00 0.00000E+00
 -1        99 0.00000E+00 0.00000E+00 0.00000E+00
 -1       100 0.00000E+00 0.00000E+00 0.00000E+00
 -1       101 0.00000E+00 0.00000E+00 0.00000E+00
 -1       102 0.00000E+00 0.00000E+00 0.00000E+00
 -1       124 3.38942E-05 1.12311E-03-8.82713E-05
 -1       125-2.60542E-08 1.21129E-03-1.56482E-04
 -1       126-3.39913E-05 1.12321E-03-8.83731E-05
 -1       127 4.49399E-09 1.00138E-03-2.37488E-04
 -1       128-1.80156E-05 7.79737E-04-3.26476E-04
 -1       129 4.57368E-10 7.40761E-04-3.17874E-04
 -1       130 1.80035E-05 7.79745E-04-3.26486E-04
 -1       131-7.25274E-10 3.45003E-04-2.22323E-04
 -1       153 2.45739E-05 1.33182E-03-3.91353E-05
 -1       154 1.57158E-05 1.11567E-03 1.61683E-06
 -1       155-2.43095E-05 1.35284E-03 3.94740E-05
 -1       156 9.22615E-06 1.04368E-03 4.74501E-06
 -1       157 3.36249E-06 7.09177E-04-1.28663E-04
 -1       158-6.39740E-06 7.32364E-04 1.33959E-07
 -1       159-3.05513E-06 7.05401E-04 1.28172E-04
 -1       160-2.83159E-06 3.08107E-04-9.84012E-07
 -1       182 4.26406E-05 1.09408E-03 9.47485E-05
 -1       183 2.59954E-08 1.27242E-03 1.60030E-04
 -1       184-4.25438E-05 1.09399E-03 9.46468E-05
 -1       185-4.49408E-09 1.02126E-03 2.29676E-04
 -1       186-1.71882E-05 7.90148E-04 3.28716E-04
 -1       187-5.02131E-10 7.29069E-04 3.21593E-04
 -1       188 1.72002E-05 7.90139E-04 3.28706E-04
 -1       189 7.10513E-10 3.38877E-04 2.23642E-04
 -1       211 2.44074E-05 1.35275E-03 3.93719E-05
 -1       212-1.57158E-05 1.11561E-03 1.61670E-06
 -1       213-2.46716E-05 1.33173E-03-3.90332E-05
 -1       214-9.22623E-06 1.04369E-03 4.74498E-06
 -1       215 3.06327E-06 7.05389E-04 1.28163E-04
 -1       216 6.39744E-06 7.32364E-04 1.33986E-07
 -1       217-3.37066E-06 7.09165E-04-1.28654E-04
 -1       218 2.83159E-06 3.08106E-04-9.84002E-07
 -1       250-2.31913E-08 1.26143E-03-6.39946E-05
 -1       251-4.15592E-06 9.77710E-04-9.12903E-06
 -1       252 1.51118E-11 1.06979E-03-4.50648E-06
 -1       253 4.15596E-06 9.77756E-04-9.12899E-06
 -1       254 2.31518E-08 1.29039E-03 8.04867E-05
 -1       255-5.73475E-12 1.05497E-03-2.03535E-07
 -1       256 3.13258E-09 6.94934E-04-1.39619E-04
 -1       257 2.26661E-06 7.49639E-04 1.28975E-06
 -1       258-7.57591E-12 7.10269E-04 3.86318E-07
 -1       259-2.26661E-06 7.49633E-04 1.28974E-06
 -1       260-3.15180E-09 6.89084E-04 1.37651E-04
 -1       261-4.77764E-12 3.19151E-04 5.33961E-07
 -3
    1PSTEP                         3           3           1          
  100CL  103 1.50000E-02          81                     1    3           1
 -4  DISP        4    1
 -5  D1          1    2    1    0
 -5  D2          1    2    2    0
 -5  D3          1    2    3    0
 -5  ALL         1    2    0    0    1ALL
 -1         5 0.00000E+00 0.00000E+00 0.00000E+00
 -1         6 0.00000E+00 0.00000E+00 0.00000E+00
 -1         7 0.00000E+00 0.00000E+00 0.00000E+00
 -1         8 0.00000E+00 0.00000E+00 0.00000E+00
 -1        21 0.00000E+00 0.00000E+00 0.00000E+00
 -1        22 0.00000E+00 0.00000E+00 0.00000E+00
 -1        23 0.00000E+00 0.00000E+00 0.00000E+00
 -1        24 0.00000E+00 0.00000E+00 0.00000E+00
 -1        25 0.00000E+00 0.00000E+00 0.00000E+00
 -1        26 0.00000E+00 0.00000E+00 0.00000E+00
 -1        27 0.00000E+00 0.00000E+00 0.00000E+00
 -1        28 0.00000E+00 0.00000E+00 0.00000E+00
 -1        29 0.00000E+00 0.00000E+00 0.00000E+00
 -1        30 0.00000E+00 0.00000E+00 0.00000E+00
 -1        31 0.00000E+00 0.00000E+00 0.00000E+00
 -1        32 0.00000E+00 0.00000E+00 0.00000E+00
 -1        44 4.69013E-05-1.26241E-03 1.65609E-04
 -1        45 1.57731E-06-9.59603E-04 2.85952E-04
 -1        46-1.14678E-05-7.06353E-04 3.51001E-04
 -1        47 3.91273E-05-2.89887E-04 2.23717E-04
 -1        48-3.91253E-05-2.89885E-04 2.23711E-04
 -1        49 1.14514E-05-7.06369E-04 3.50996E-04
 -1        50-1.56223E-06-9.59588E-04 2.86009E-04
 -1        51-4.70233E-05-1.26253E-03 1.65812E-04
 -1        74-3.44591E-05-1.38755E-03-1.82432E-04
 -1        75 2.57559E-05-1.00668E-03-2.88189E-04
 -1        76-7.15804E-06-6.77089E-04-3.49110E-04
 -1        77-4.72597E-05-2.73003E-04-2.24923E-04
 -1        89 3.45807E-05-1.38767E-03-1.82633E-04
 -1        90-2.57707E-05-1.00666E-03-2.88246E-04
 -1        91 7.17440E-06-6.77105E-04-3.49106E-04
 -1        92 4.72578E-05-2.73001E-04-2.24918E-04
 -1        98 0.00000E+00 0.00000E+00 0.00000E+00
 -1        99 0.00000E+00 0.00000E+00 0.00000E+00
 -1       100 0.00000E+00 0.00000E+00 0.00000E+00
 -1       101 0.00000E+00 0.00000E+00 0.00000E+00
 -1       102 0.00000E+00 0.00000E+00 0.00000E+00
 -1       124-1.93785E-06-1.12788E-03 1.78696E-04
 -1       125-2.00009E-08-1.26564E-03 8.87504E-05
 -1       126 1.86725E-06-1.12781E-03 1.78621E-04
 -1       127 3.69521E-09-9.62791E-04 2.80406E-04
 -1       128 2.94697E-06-7.38586E-04 3.42152E-04
 -1       129 5.99887E-11-6.99274E-04 3.53404E-04
 -1       130-2.95569E-06-7.38581E-04 3.42145E-04
 -1       131-4.45494E-10-2.95694E-04 2.10782E-04
 -1       153-8.99176E-06-1.47654E-03 9.86336E-05
 -1       154-1.80652E-05-1.21194E-03 2.80944E-06
 -1       155 9.10077E-06-1.50647E-03-1.03940E-04
 -1       156-1.63096E-05-9.93748E-04-6.35878E-06
 -1       157 6.08617E-06-6.32739E-04 1.43701E-04
 -1       158 1.11325E-05-6.82963E-04-2.13059E-06
 -1       159-7.31049E-06-6.26062E-04-1.44032E-04
 -1       160 4.25632E-06-2.57717E-04 3.18745E-07
 -1       182-2.17130E-05-1.08811E-03-1.95300E-04
 -1       183 2.01618E-08-1.38271E-03-1.15135E-04
 -1       184 2.17838E-05-1.08818E-03-1.95374E-04
 -1       185-3.54717E-09-9.91029E-04-2.76096E-04
 -1       186 2.57979E-08-7.55248E-04-3.47786E-04
 -1       187-3.01671E-11-6.81960E-04-3.58545E-04
 -1       188-1.71337E-08-7.55253E-04-3.47793E-04
 -1       189 4.84014E-10-2.85760E-04-2.11781E-04
 -1       211-9.03020E-06-1.50654E-03-1.04015E-04
 -1       212 1.80659E-05-1.21198E-03 2.80894E-06
 -1       213 8.92149E-06-1.47661E-03 9.87085E-05
 -1       214 1.63097E-05-9.93740E-04-6.35885E-06
 -1       215 7.31607E-06-6.26071E-04-1.44038E-04
 -1       216-1.11324E-05-6.82964E-04-2.13065E-06
 -1       217-6.09165E-06-6.32748E-04 1.43707E-04
 -1       218-4.25633E-06-2.57718E-04 3.18656E-07
 -1       250-1.73415E-08-1.31205E-03-9.57213E-06
 -1       251 2.28191E-06-9.69040E-04 1.09311E-05
 -1       252 1.35151E-10-9.99554E-04 4.41962E-06
 -1       253-2.28157E-06-9.69005E-04 1.09313E-05
 -1       254 1.75148E-08-1.36734E-03-1.59788E-05
 -1       255 4.99903E-11-1.05471E-03-1.45875E-06
 -1       256 2.16826E-09-6.09094E-04 1.65165E-04
 -1       257-3.84816E-06-6.84637E-04-2.27584E-06
 -1       258 5.79718E-11-6.13897E-04-1.52440E-06
 -1       259 3.84829E-06-6.84641E-04-2.27580E-06
 -1       260-2.08278E-09-6.00695E-04-1.65876E-04
 -1       261-3.35507E-13-2.80199E-04-1.09364E-06
 -3
    1PSTEP                         4           4           1          
  100CL  104 2.00000E-02          81                     1    4           1
 -4  DISP        4    1
 -5  D1          1    2    1    0
 -5  D2          1    2    2    0
 -5  D3          1    2    3    0
 -5  ALL         1    2    0    0    1ALL
 -1         5 0.00000E+00 0.00000E+00 0.00000E+00
 -1         6 0.00000E+00 0.00000E+00 0.00000E+00
 -1         7 0.00000E+00 0.00000E+00 0.00000E+00
 -1         8 0.00000E+00 0.00000E+00 0.00000E+00
 -1        21 0.00000E+00 0.00000E+00 0.00000E+00
 -1        22 0.00000E+00 0.00000E+00 0.00000E+00
 -1        23 0.00000E+00 0.00000E+00 0.00000E+00
 -1        24 0.00000E+00 0.00000E+00 0.00000E+00
 -1        25 0.00000E+00 0.00000E+00 0.00000E+00
 -1        26 0.00000E+00 0.00000E+00 0.00000E+00
 -1        27 0.00000E+00 0.00000E+00 0.00000E+00
 -1        28 0.00000E+00 0.00000E+00 0.00000E+00
 -1        29 0.00000E+00 0.00000E+00 0.00000E+00
 -1        30 0.00000E+00 0.00000E+00 0.00000E+00
 -1        31 0.00000E+00 0.00000E+00 0.00000E+00
 -1        32 0.00000E+00 0.00000E+00 0.00000E+00
 -1        44-6.02017E-05 7.93823E-04-9.75348E-05
 -1        45-4.02237E-06 6.34905E-04-1.86466E-04
 -1        46 2.07200E-05 5.05000E-04-2.08394E-04
 -1        47-2.71858E-05 2.13518E-04-1.42945E-04
 -1        48 2.71352E-05 2.13466E-04-1.42788E-04
 -1        49-2.03076E-05 5.05413E-04-2.08262E-04
 -1        50 3.63479E-06 6.34520E-04-1.87766E-04
 -1        51 6.30549E-05 7.96681E-04-1.02251E-04
 -1        74 3.52845E-05 8.69527E-04 1.00212E-04
 -1        75-7.61020E-06 6.56737E-04 1.85412E-04
 -1        76-1.35078E-05 4.91410E-04 2.06303E-04
 -1        77 3.11939E-05 2.04837E-04 1.42921E-04
 -1        89-3.81549E-05 8.72409E-04 1.04960E-04
 -1        90 7.99495E-06 6.56344E-04 1.86717E-04
 -1        91 1.30910E-05 4.91829E-04 2.06171E-04
 -1        92-3.11427E-05 2.04786E-04 1.42764E-04
 -1        98 0.00000E+00 0.00000E+00 0.00000E+00
 -1        99 0.00000E+00 0.00000E+00 0.00000E+00
 -1       100 0.00000E+00 0.00000E+00 0.00000E+00
 -1       101 0.00000E+00 0.00000E+00 0.00000E+00
 -1       102 0.00000E+00 0.00000E+00 0.00000E+00
 -1       124 3.15964E-05 7.49280E-04-7.50985E-05
 -1       125 3.80705E-07 8.22687E-04-1.12312E-04
 -1       126-3.00229E-05 7.47652E-04-7.34550E-05
 -1       127-5.96896E-08 6.61649E-04-1.71129E-04
 -1       128-1.04120E-05 5.09192E-04-2.23717E-04
 -1       129-2.07599E-08 4.80430E-04-2.18467E-04
 -1       130 1.06090E-05 5.09044E-04-2.23558E-04
 -1       131 1.38417E-08 2.17959E-04-1.45779E-04
 -1       153 1.55850E-05 9.06598E-04-3.57026E-05
 -1       154 1.67618E-05 7.44101E-04 5.23459E-06
 -1       155-1.69245E-05 9.26757E-04 3.28950E-05
 -1       156 7.12349E-06 6.86573E-04 4.72210E-06
 -1       157-2.55826E-07 4.51867E-04-8.89085E-05
 -1       158-4.53976E-06 4.69910E-04-2.32735E-07
 -1       159 6.84091E-07 4.49641E-04 8.93909E-05
 -1       160-2.42975E-06 1.94497E-04-1.21764E-06
 -1       182 3.25396E-05 7.24368E-04 7.90744E-05
 -1       183-3.84565E-07 8.60771E-04 1.06616E-04
 -1       184-3.41238E-05 7.26012E-04 8.07325E-05
 -1       185 5.86853E-08 6.78375E-04 1.62237E-04
 -1       186-1.08495E-05 5.16347E-04 2.23630E-04
 -1       187 1.89992E-08 4.68647E-04 2.21181E-04
 -1       188 1.06483E-05 5.16497E-04 2.23789E-04
 -1       189-1.38527E-08 2.13244E-04 1.47424E-04
 -1       211 1.52931E-05 9.28343E-04 3.45410E-05
 -1       212-1.67572E-05 7.44865E-04 5.22755E-06
 -1       213-1.39560E-05 9.08175E-04-3.73489E-05
 -1       214-7.12644E-06 6.86457E-04 4.72242E-06
 -1       215-8.33675E-07 4.49841E-04 8.95523E-05
 -1       216 4.54038E-06 4.69868E-04-2.31713E-07
 -1       217 4.03504E-07 4.52063E-04-8.90667E-05
 -1       218 2.42912E-06 1.94524E-04-1.21785E-06
 -1       250 3.54886E-07 8.65180E-04-4.47118E-05
 -1       251-5.53183E-06 6.46770E-04-6.44110E-06
 -1       252-1.01950E-09 7.21142E-04-2.72506E-06
 -1       253 5.53215E-06 6.46058E-04-6.43945E-06
 -1       254-3.58845E-07 8.81582E-04 5.61836E-05
 -1       255-7.15329E-10 6.98677E-04 1.04668E-07
 -1       256-5.80011E-08 4.43977E-04-9.66010E-05
 -1       257 1.49357E-06 4.84227E-04 1.07387E-06
 -1       258-3.65224E-10 4.55207E-04 7.49626E-08
 -1       259-1.49342E-06 4.84343E-04 1.07384E-06
 -1       260 5.70532E-08 4.38430E-04 9.43417E-05
 -1       261-2.45569E-10 2.01168E-04 3.51891E-07
 -3
    1PSTEP                         5           5           1          
  100CL  105 2.50000E-02          81                     1    5           1
 -4  DISP        4    1
 -5  D1          1    2    1    0
 -5  D2          1    2    2    0
 -5  D3          1    2    3    0
 -5  ALL         1    2    0    0    1ALL
 -1         5 0.00000E+00 0.00000E+00 0.00000E+00
 -1         6 0.00000E+00 0.00000E+00 0.00000E+00
 -1         7 0.00000E+00 0.00000E+00 0.00000E+00
 -1         8 0.00000E+00 0.00000E+00 0.00000E+00
 -1        21 0.00000E+00 0.00000E+00 0.00000E+00
 -1        22 0.00000E+00 0.00000E+00 0.00000E+00
 -1        23 0.00000E+00 0.00000E+00 0.00000E+00
 -1        24 0.00000E+00 0.00000E+00 0.00000E+00
 -1        25 0.00000E+00 0.00000E+00 0.00000E+00
 -1        26 0.00000E+00 0.00000E+00 0.00000E+00
 -1        27 0.00000E+00 0.00000E+00 0.00000E+00
 -1        28 0.00000E+00 0.00000E+00 0.00000E+00
 -1        29 0.00000E+00 0.00000E+00 0.00000E+00
 -1        30 0.00000E+00 0.00000E+00 0.00000E+00
 -1        31 0.00000E+00 0.00000E+00 0.00000E+00
 -1        32 0.00000E+00 0.00000E+00 0.00000E+00
 -1        44 6.67971E-06-6.20489E-04 6.74539E-05
 -1        45-9.08514E-07-4.89644E-04 1.31899E-04
 -1        46-1.38018E-05-3.74315E-04 1.60645E-04
 -1        47 2.16453E-05-1.61095E-04 1.12117E-04
 -1        48-2.16832E-05-1.61133E-04 1.12236E-04
 -1        49 1.41110E-05-3.74005E-04 1.60745E-04
 -1        50 6.17737E-07-4.89934E-04 1.30943E-04
 -1        51-4.56916E-06-6.18374E-04 6.39720E-05
 -1        74-2.78221E-05-6.42544E-04-7.26348E-05
 -1        75 1.67260E-05-5.15280E-04-1.31929E-04
 -1        76 3.45019E-06-3.58586E-04-1.60801E-04
 -1        77-2.49804E-05-1.53850E-04-1.12863E-04
 -1        89 2.57024E-05-6.40413E-04-6.91328E-05
 -1        90-1.64358E-05-5.15576E-04-1.30971E-04
 -1        91-3.76163E-06-3.58273E-04-1.60902E-04
 -1        92 2.50189E-05-1.53888E-04-1.12982E-04
 -1        98 0.00000E+00 0.00000E+00 0.00000E+00
 -1        99 0.00000E+00 0.00000E+00 0.00000E+00
 -1       100 0.00000E+00 0.00000E+00 0.00000E+00
 -1       101 0.00000E+00 0.00000E+00 0.00000E+00
 -1       102 0.00000E+00 0.00000E+00 0.00000E+00
 -1       124 8.24619E-07-5.64238E-04 6.52623E-05
 -1       125 2.69724E-07-6.06679E-04 5.32621E-05
 -1       126 3.28532E-07-5.65439E-04 6.64636E-05
 -1       127-4.00668E-08-4.94971E-04 1.22406E-04
 -1       128 7.06271E-06-3.82116E-04 1.63823E-04
 -1       129-1.78623E-08-3.65047E-04 1.66463E-04
 -1       130-6.91755E-06-3.82227E-04 1.63941E-04
 -1       131 1.06555E-08-1.65402E-04 1.11100E-04
 -1       153-6.55609E-06-6.96308E-04 3.40306E-05
 -1       154 3.96589E-06-5.86367E-04 1.09239E-05
 -1       155 2.85186E-06-6.97628E-04-4.41111E-05
 -1       156-7.56950E-06-5.09487E-04 8.62128E-07
 -1       157-1.01928E-06-3.45918E-04 6.74139E-05
 -1       158 6.01494E-06-3.64974E-04-1.79321E-06
 -1       159 8.81257E-07-3.40182E-04-6.43942E-05
 -1       160 1.21627E-06-1.45514E-04-1.35350E-06
 -1       182-1.74808E-05-5.42281E-04-6.33086E-05
 -1       183-2.71223E-07-6.73483E-04-7.62803E-05
 -1       184 1.63228E-05-5.41069E-04-6.20983E-05
 -1       185 3.99868E-08-5.04771E-04-1.27175E-04
 -1       186 3.11511E-06-3.88938E-04-1.69735E-04
 -1       187 1.70535E-08-3.61055E-04-1.67352E-04
 -1       188-3.26241E-06-3.88824E-04-1.69616E-04
 -1       189-1.05783E-08-1.60440E-04-1.08956E-04
 -1       211-4.05367E-06-6.96466E-04-4.29101E-05
 -1       212-3.96237E-06-5.85828E-04 1.09193E-05
 -1       213 7.75762E-06-6.95153E-04 3.28290E-05
 -1       214 7.56840E-06-5.09565E-04 8.62093E-07
 -1       215-9.93952E-07-3.40036E-04-6.42743E-05
 -1       216-6.01438E-06-3.65011E-04-1.79284E-06
 -1       217 1.13126E-06-3.45773E-04 6.72956E-05
 -1       218-1.21655E-06-1.45492E-04-1.35382E-06
 -1       250 2.55619E-07-6.27698E-04 1.48040E-05
 -1       251-5.34523E-06-5.00233E-04 3.29282E-06
 -1       252-6.46584E-11-5.17149E-04 1.89196E-06
 -1       253 5.34629E-06-5.00744E-04 3.29422E-06
 -1       254-2.57058E-07-6.64041E-04-2.23116E-05
 -1       255-2.22352E-10-5.28802E-04 4.05964E-08
 -1       256-4.37248E-08-3.35240E-04 7.44824E-05
 -1       257-2.24042E-06-3.65617E-04-2.60752E-08
 -1       258-1.47675E-11-3.39818E-04-6.99349E-07
 -1       259 2.24082E-06-3.65529E-04-2.60170E-08
 -1       260 4.34943E-08-3.32444E-04-7.62991E-05
 -1       261-1.23374E-10-1.54593E-04-6.39169E-07
 -3
    1PSTEP                         6           6           1          
  100CL  106 3.00000E-02          81                     1    6           1
 -4  DISP        4    1
 -5  D1          1    2    1    0
 -5  D2          1    2    2    0
 -5  D3          1    2    3    0
 -5  ALL         1    2    0    0    1ALL
 -1         5 0.00000E+00 0.00000E+00 0.00000E+00
 -1         6 0.00000E+00 0.00000E+00 0.00000E+00
 -1         7 0.00000E+00 0.00000E+00 0.00000E+00
 -1         8 0.00000E+00 0.00000E+00 0.00000E+00
 -1        21 0.00000E+00 0.00000E+00 0.00000E+00
 -1        22 0.00000E+00 0.00000E+00 0.00000E+00
 -1        23 0.00000E+00 0.00000E+00 0.00000E+00
 -1        24 0.00000E+00 0.00000E+00 0.00000E+00
 -1        25 0.00000E+00 0.00000E+00 0.00000E+00
 -1        26 0.00000E+00 0.00000E+00 0.00000E+00
 -1        27 0.00000E+00 0.00000E+00 0.00000E+00
 -1        28 0.00000E+00 0.00000E+00 0.00000E+00
 -1        29 0.00000E+00 0.00000E+00 0.00000E+00
 -1        30 0.00000E+00 0.00000E+00 0.00000E+00
 -1        31 0.00000E+00 0.00000E+00 0.00000E+00
 -1        32 0.00000E+00 0.00000E+00 0.00000E+00
 -1        44-6.53843E-05 5.07181E-04-7.27376E-05
 -1        45-5.92141E-06 4.01908E-04-1.33812E-04
 -1        46 8.91817E-06 3.10346E-04-1.45586E-04
 -1        47-1.58958E-05 1.24225E-04-9.04641E-05