    1C
    1UUSER                                                              
    1UDATE              17.july.2018                                    
    1UTIME              21:42:12                                        
    1UHOST                                                              
    1UPGM               CalculiX                                        
    1UVERSION           Version 2.13                             
    1UCOMPILETIME       jue jun 14 00:40:39 CEST 2018                    
    1UDIR                                                               
    1UDBN                                                               
    1UMAT    1EL                                                        
    2C                           201                                     1
 -1         1 0.00000E+00 0.00000E+00 0.00000E+00
 -1         2 1.00000E+00 0.00000E+00 0.00000E+00
 -1         3 1.00000E+00 1.00000E+00 0.00000E+00
 -1         4 0.00000E+00 1.00000E+00 0.00000E+00
 -1         9 2.50000E-01 0.00000E+00 0.00000E+00
 -1        10 5.00000E-01 0.00000E+00 0.00000E+00
 -1        11 7.50000E-01 0.00000E+00 0.00000E+00
 -1        12 1.00000E+00 2.50000E-01 0.00000E+00
 -1        13 1.00000E+00 5.00000E-01 0.00000E+00
 -1        14 1.00000E+00 7.50000E-01 0.00000E+00
 -1        15 7.50000E-01 1.00000E+00 0.00000E+00
 -1        16 5.00000E-01 1.00000E+00 0.00000E+00
 -1        17 2.50000E-01 1.00000E+00 0.00000E+00
 -1        18 0.00000E+00 7.50000E-01 0.00000E+00
 -1        19 0.00000E+00 5.00000E-01 0.00000E+00
 -1        20 0.00000E+00 2.50000E-01 0.00000E+00
 -1        33 1.00000E+00 0.00000E+00 5.00000E-01
 -1        34 1.00000E+00 0.00000E+00 1.00000E+00
 -1        35 1.00000E+00 0.00000E+00 1.50000E+00
 -1        36 1.00000E+00 0.00000E+00 2.00000E+00
 -1        37 1.00000E+00 0.00000E+00 2.50000E+00
 -1        38 1.00000E+00 0.00000E+00 3.00000E+00
 -1        39 1.00000E+00 0.00000E+00 3.50000E+00
 -1        40 1.00000E+00 0.00000E+00 4.00000E+00
 -1        41 1.00000E+00 0.00000E+00 4.50000E+00
 -1        42 1.00000E+00 0.00000E+00 5.00000E+00
 -1        43 1.00000E+00 0.00000E+00 5.50000E+00
 -1        44 1.00000E+00 0.00000E+00 6.00000E+00
 -1        51 0.00000E+00 0.00000E+00 6.00000E+00
 -1        52 0.00000E+00 0.00000E+00 5.50000E+00
 -1        53 0.00000E+00 0.00000E+00 5.00000E+00
 -1        54 0.00000E+00 0.00000E+00 4.50000E+00
 -1        55 0.00000E+00 0.00000E+00 4.00000E+00
 -1        56 0.00000E+00 0.00000E+00 3.50000E+00
 -1        57 0.00000E+00 0.00000E+00 3.00000E+00
 -1        58 0.00000E+00 0.00000E+00 2.50000E+00
 -1        59 0.00000E+00 0.00000E+00 2.00000E+00
 -1        60 0.00000E+00 0.00000E+00 1.50000E+00
 -1        61 0.00000E+00 0.00000E+00 1.00000E+00
 -1        62 0.00000E+00 0.00000E+00 5.00000E-01
 -1        63 1.00000E+00 1.00000E+00 5.00000E-01
 -1        64 1.00000E+00 1.00000E+00 1.00000E+00
 -1        65 1.00000E+00 1.00000E+00 1.50000E+00
 -1        66 1.00000E+00 1.00000E+00 2.00000E+00
 -1        67 1.00000E+00 1.00000E+00 2.50000E+00
 -1        68 1.00000E+00 1.00000E+00 3.00000E+00
 -1        69 1.00000E+00 1.00000E+00 3.50000E+00
 -1        70 1.00000E+00 1.00000E+00 4.00000E+00
 -1        71 1.00000E+00 1.00000E+00 4.50000E+00
 -1        72 1.00000E+00 1.00000E+00 5.00000E+00
 -1        73 1.00000E+00 1.00000E+00 5.50000E+00
 -1        74 1.00000E+00 1.00000E+00 6.00000E+00
 -1        78 0.00000E+00 1.00000E+00 5.00000E-01
 -1        79 0.00000E+00 1.00000E+00 1.00000E+00
 -1        80 0.00000E+00 1.00000E+00 1.50000E+00
 -1        81 0.00000E+00 1.00000E+00 2.00000E+00
 -1        82 0.00000E+00 1.00000E+00 2.50000E+00
 -1        83 0.00000E+00 1.00000E+00 3.00000E+00
 -1        84 0.00000E+00 1.00000E+00 3.50000E+00
 -1        85 0.00000E+00 1.00000E+00 4.00000E+00
 -1        86 0.00000E+00 1.00000E+00 4.50000E+00
 -1        87 0.00000E+00 1.00000E+00 5.00000E+00
 -1        88 0.00000E+00 1.00000E+00 5.50000E+00
 -1        89 0.00000E+00 1.00000E+00 6.00000E+00
 -1        93 5.00000E-01 2.50000E-01 0.00000E+00
 -1        94 2.50000E-01 5.00000E-01 0.00000E+00
 -1        95 5.00000E-01 5.00000E-01 0.00000E+00
 -1        96 7.50000E-01 5.00000E-01 0.00000E+00
 -1        97 5.00000E-01 7.50000E-01 0.00000E+00
 -1       103 5.00000E-01 0.00000E+00 5.00000E-01
 -1       104 2.50000E-01 0.00000E+00 1.00000E+00
 -1       105 5.00000E-01 0.00000E+00 1.00000E+00
 -1       106 7.50000E-01 0.00000E+00 1.00000E+00
 -1       107 5.00000E-01 0.00000E+00 1.50000E+00
 -1       108 2.50000E-01 0.00000E+00 2.00000E+00
 -1       109 5.00000E-01 0.00000E+00 2.00000E+00
 -1       110 7.50000E-01 0.00000E+00 2.00000E+00
 -1       111 5.00000E-01 0.00000E+00 2.50000E+00
 -1       112 2.50000E-01 0.00000E+00 3.00000E+00
 -1       113 5.00000E-01 0.00000E+00 3.00000E+00
 -1       114 7.50000E-01 0.00000E+00 3.00000E+00
 -1       115 5.00000E-01 0.00000E+00 3.50000E+00
 -1       116 2.50000E-01 0.00000E+00 4.00000E+00
 -1       117 5.00000E-01 0.00000E+00 4.00000E+00
 -1       118 7.50000E-01 0.00000E+00 4.00000E+00
 -1       119 5.00000E-01 0.00000E+00 4.50000E+00
 -1       120 2.50000E-01 0.00000E+00 5.00000E+00
 -1       121 5.00000E-01 0.00000E+00 5.00000E+00
 -1       122 7.50000E-01 0.00000E+00 5.00000E+00
 -1       123 5.00000E-01 0.00000E+00 5.50000E+00
 -1       124 2.50000E-01 0.00000E+00 6.00000E+00
 -1       125 5.00000E-01 0.00000E+00 6.00000E+00
 -1       126 7.50000E-01 0.00000E+00 6.00000E+00
 -1       132 1.00000E+00 5.00000E-01 5.00000E-01
 -1       133 1.00000E+00 2.50000E-01 1.00000E+00
 -1       134 1.00000E+00 5.00000E-01 1.00000E+00
 -1       135 1.00000E+00 7.50000E-01 1.00000E+00
 -1       136 1.00000E+00 5.00000E-01 1.50000E+00
 -1       137 1.00000E+00 2.50000E-01 2.00000E+00
 -1       138 1.00000E+00 5.00000E-01 2.00000E+00
 -1       139 1.00000E+00 7.50000E-01 2.00000E+00
 -1       140 1.00000E+00 5.00000E-01 2.50000E+00
 -1       141 1.00000E+00 2.50000E-01 3.00000E+00
 -1       142 1.00000E+00 5.00000E-01 3.00000E+00
 -1       143 1.00000E+00 7.50000E-01 3.00000E+00
 -1       144 1.00000E+00 5.00000E-01 3.50000E+00
 -1       145 1.00000E+00 2.50000E-01 4.00000E+00
 -1       146 1.00000E+00 5.00000E-01 4.00000E+00
 -1       147 1.00000E+00 7.50000E-01 4.00000E+00
 -1       148 1.00000E+00 5.00000E-01 4.50000E+00
 -1       149 1.00000E+00 2.50000E-01 5.00000E+00
 -1       150 1.00000E+00 5.00000E-01 5.00000E+00
 -1       151 1.00000E+00 7.50000E-01 5.00000E+00
 -1       152 1.00000E+00 5.00000E-01 5.50000E+00
 -1       153 1.00000E+00 2.50000E-01 6.00000E+00
 -1       154 1.00000E+00 5.00000E-01 6.00000E+00
 -1       155 1.00000E+00 7.50000E-01 6.00000E+00
 -1       161 5.00000E-01 1.00000E+00 5.00000E-01
 -1       162 7.50000E-01 1.00000E+00 1.00000E+00
 -1       163 5.00000E-01 1.00000E+00 1.00000E+00
 -1       164 2.50000E-01 1.00000E+00 1.00000E+00
 -1       165 5.00000E-01 1.00000E+00 1.50000E+00
 -1       166 7.50000E-01 1.00000E+00 2.00000E+00
 -1       167 5.00000E-01 1.00000E+00 2.00000E+00
 -1       168 2.50000E-01 1.00000E+00 2.00000E+00
 -1       169 5.00000E-01 1.00000E+00 2.50000E+00
 -1       170 7.50000E-01 1.00000E+00 3.00000E+00
 -1       171 5.00000E-01 1.00000E+00 3.00000E+00
 -1       172 2.50000E-01 1.00000E+00 3.00000E+00
 -1       173 5.00000E-01 1.00000E+00 3.50000E+00
 -1       174 7.50000E-01 1.00000E+00 4.00000E+00
 -1       175 5.00000E-01 1.00000E+00 4.00000E+00
 -1       176 2.50000E-01 1.00000E+00 4.00000E+00
 -1       177 5.00000E-01 1.00000E+00 4.50000E+00
 -1       178 7.50000E-01 1.00000E+00 5.00000E+00
 -1       179 5.00000E-01 1.00000E+00 5.00000E+00
 -1       180 2.50000E-01 1.00000E+00 5.00000E+00
 -1       181 5.00000E-01 1.00000E+00 5.50000E+00
 -1       182 7.50000E-01 1.00000E+00 6.00000E+00
 -1       183 5.00000E-01 1.00000E+00 6.00000E+00
 -1       184 2.50000E-01 1.00000E+00 6.00000E+00
 -1       190 0.00000E+00 5.00000E-01 5.00000E-01
 -1       191 0.00000E+00 7.50000E-01 1.00000E+00
 -1       192 0.00000E+00 5.00000E-01 1.00000E+00
 -1       193 0.00000E+00 2.50000E-01 1.00000E+00
 -1       194 0.00000E+00 5.00000E-01 1.50000E+00
 -1       195 0.00000E+00 7.50000E-01 2.00000E+00
 -1       196 0.00000E+00 5.00000E-01 2.00000E+00
 -1       197 0.00000E+00 2.50000E-01 2.00000E+00
 -1       198 0.00000E+00 5.00000E-01 2.50000E+00
 -1       199 0.00000E+00 7.50000E-01 3.00000E+00
 -1       200 0.00000E+00 5.00000E-01 3.00000E+00
 -1       201 0.00000E+00 2.50000E-01 3.00000E+00
 -1       202 0.00000E+00 5.00000E-01 3.50000E+00
 -1       203 0.00000E+00 7.50000E-01 4.00000E+00
 -1       204 0.00000E+00 5.00000E-01 4.00000E+00
 -1       205 0.00000E+00 2.50000E-01 4.00000E+00
 -1       206 0.00000E+00 5.00000E-01 4.50000E+00
 -1       207 0.00000E+00 7.50000E-01 5.00000E+00
 -1       208 0.00000E+00 5.00000E-01 5.00000E+00
 -1       209 0.00000E+00 2.50000E-01 5.00000E+00
 -1       210 0.00000E+00 5.00000E-01 5.50000E+00
 -1       211 0.00000E+00 7.50000E-01 6.00000E+00
 -1       212 0.00000E+00 5.00000E-01 6.00000E+00
 -1       213 0.00000E+00 2.50000E-01 6.00000E+00
 -1       219 5.00000E-01 5.00000E-01 5.00000E-01
 -1       220 5.00000E-01 2.50000E-01 1.00000E+00
 -1       221 2.50000E-01 5.00000E-01 1.00000E+00
 -1       222 5.00000E-01 5.00000E-01 1.00000E+00
 -1       223 7.50000E-01 5.00000E-01 1.00000E+00
 -1       224 5.00000E-01 7.50000E-01 1.00000E+00
 -1       225 5.00000E-01 5.00000E-01 1.50000E+00
 -1       226 5.00000E-01 2.50000E-01 2.00000E+00
 -1       227 2.50000E-01 5.00000E-01 2.00000E+00
 -1       228 5.00000E-01 5.00000E-01 2.00000E+00
 -1       229 7.50000E-01 5.00000E-01 2.00000E+00
 -1       230 5.00000E-01 7.50000E-01 2.00000E+00
 -1       231 5.00000E-01 5.00000E-01 2.50000E+00
 -1       232 5.00000E-01 2.50000E-01 3.00000E+00
 -1       233 2.50000E-01 5.00000E-01 3.00000E+00
 -1       234 5.00000E-01 5.00000E-01 3.00000E+00
 -1       235 7.50000E-01 5.00000E-01 3.00000E+00
 -1       236 5.00000E-01 7.50000E-01 3.00000E+00
 -1       237 5.00000E-01 5.00000E-01 3.50000E+00
 -1       238 5.00000E-01 2.50000E-01 4.00000E+00
 -1       239 2.50000E-01 5.00000E-01 4.00000E+00
 -1       240 5.00000E-01 5.00000E-01 4.00000E+00
 -1       241 7.50000E-01 5.00000E-01 4.00000E+00
 -1       242 5.00000E-01 7.50000E-01 4.00000E+00
 -1       243 5.00000E-01 5.00000E-01 4.50000E+00
 -1       244 5.00000E-01 2.50000E-01 5.00000E+00
 -1       245 2.50000E-01 5.00000E-01 5.00000E+00
 -1       246 5.00000E-01 5.00000E-01 5.00000E+00
 -1       247 7.50000E-01 5.00000E-01 5.00000E+00
 -1       248 5.00000E-01 7.50000E-01 5.00000E+00
 -1       249 5.00000E-01 5.00000E-01 5.50000E+00
 -1       250 5.00000E-01 2.50000E-01 6.00000E+00
 -1       251 2.50000E-01 5.00000E-01 6.00000E+00
 -1       252 5.00000E-01 5.00000E-01 6.00000E+00
 -1       253 7.50000E-01 5.00000E-01 6.00000E+00
 -1       254 5.00000E-01 7.50000E-01 6.00000E+00
 -3
    3C                            24                                     1
 -1         1    4    0    1
 -2         1        10        95        19        61       105       222       192         9        93
 -2        94        20        62       103       219       190       104       220       221       193
 -1         2    4    0    1
 -2        10         2        13        95       105        34       134       222        11        12
 -2        96        93       103        33       132       219       106       133       223       220
 -1         3    4    0    1
 -2        19        95        16         4       192       222       163        79        94        97
 -2        17        18       190       219       161        78       221       224       164       191
 -1         4    4    0    1
 -2        95        13         3        16       222       134        64       163        96        14
 -2        15        97       219       132        63       161       223       135       162       224
 -1         5    4    0    1
 -2        61       105       222       192        59       109       228       196       104       220
 -2       221       193        60       107       225       194       108       226       227       197
 -1         6    4    0    1
 -2       105        34       134       222       109        36       138       228       106       133
 -2       223       220       107        35       136       225       110       137       229       226
 -1         7    4    0    1
 -2       192       222       163        79       196       228       167        81       221       224
 -2       164       191       194       225       165        80       227       230       168       195
 -1         8    4    0    1
 -2       222       134        64       163       228       138        66       167       223       135
 -2       162       224       225       136        65       165       229       139       166       230
 -1         9    4    0    1
 -2        59       109       228       196        57       113       234       200       108       226
 -2       227       197        58       111       231       198       112       232       233       201
 -1        10    4    0    1
 -2       109        36       138       228       113        38       142       234       110       137
 -2       229       226       111        37       140       231       114       141       235       232
 -1        11    4    0    1
 -2       196       228       167        81       200       234       171        83       227       230
 -2       168       195       198       231       169        82       233       236       172       199
 -1        12    4    0    1
 -2       228       138        66       167       234       142        68       171       229       139
 -2       166       230       231       140        67       169       235       143       170       236
 -1        13    4    0    1
 -2        57       113       234       200        55       117       240       204       112       232
 -2       233       201        56       115       237       202       116       238       239       205
 -1        14    4    0    1
 -2       113        38       142       234       117        40       146       240       114       141
 -2       235       232       115        39       144       237       118       145       241       238
 -1        15    4    0    1
 -2       200       234       171        83       204       240       175        85       233       236
 -2       172       199       202       237       173        84       239       242       176       203
 -1        16    4    0    1
 -2       234       142        68       171       240       146        70       175       235       143
 -2       170       236       237       144        69       173       241       147       174       242
 -1        17    4    0    1
 -2        55       117       240       204        53       121       246       208       116       238
 -2       239       205        54       119       243       206       120       244       245       209
 -1        18    4    0    1
 -2       117        40       146       240       121        42       150       246       118       145
 -2       241       238       119        41       148       243       122       149       247       244
 -1        19    4    0    1
 -2       204       240       175        85       208       246       179        87       239       242
 -2       176       203       206       243       177        86       245       248       180       207
 -1        20    4    0    1
 -2       240       146        70       175       246       150        72       179       241       147
 -2       174       242       243       148        71       177       247       151       178       248
 -1        21    4    0    1
 -2        53       121       246       208        51       125       252       212       120       244
 -2       245       209        52       123       249       210       124       250       251       213
 -1        22    4    0    1
 -2       121        42       150       246       125        44       154       252       122       149
 -2       247       244       123        43       152       249       126       153       253       250
 -1        23    4    0    1
 -2       208       246       179        87       212       252       183        89       245       248
 -2       180       207       210       249       181        88       251       254       184       211
 -1        24    4    0    1
 -2       246       150        72       179       252       154        74       183       247       151
 -2       178       248       249       152        73       181       253       155       182       254
 -3
    1PSTEP                         1           1           1          
  100CL  101 5.00000E-03         201                     1    1           1
 -4  DISP        4    1
 -5  D1          1    2    1    0
 -5  D2          1    2    2    0
 -5  D3          1    2    3    0
 -5  ALL         1    2    0    0    1ALL
 -1         1 0.00000E+00 0.00000E+00 0.00000E+00
 -1         2 0.00000E+00 0.00000E+00 0.00000E+00
 -1         3 0.00000E+00 0.00000E+00 0.00000E+00
 -1         4 0.00000E+00 0.00000E+00 0.00000E+00
 -1         9 0.00000E+00 0.00000E+00 0.00000E+00
 -1        10 0.00000E+00 0.00000E+00 0.00000E+00
 -1        11 0.00000E+00 0.00000E+00 0.00000E+00
 -1        12 0.00000E+00 0.00000E+00 0.00000E+00
 -1        13 0.00000E+00 0.00000E+00 0.00000E+00
 -1        14 0.00000E+00 0.00000E+00 0.00000E+00
 -1        15 0.00000E+00 0.00000E+00 0.00000E+00
 -1        16 0.00000E+00 0.00000E+00 0.00000E+00
 -1        17 0.00000E+00 0.00000E+00 0.00000E+00
 -1        18 0.00000E+00 0.00000E+00 0.00000E+00
 -1        19 0.00000E+00 0.00000E+00 0.00000E+00
 -1        20 0.00000E+00 0.00000E+00 0.00000E+00
 -1        33 6.38253E-05-1.55656E-04-2.04505E-04
 -1        34 3.13243E-05-4.81920E-04-3.74383E-04
 -1        35 2.57527E-05-9.70889E-04-4.83946E-04
 -1        36 8.13121E-06-1.52851E-03-5.40980E-04
 -1        37-5.19464E-06-2.11214E-03-5.47806E-04
 -1        38-2.11508E-05-2.69499E-03-5.19133E-04
 -1        39-4.25872E-05-3.19605E-03-3.84808E-04
 -1        40-4.31849E-05-3.54396E-03-2.09578E-04
 -1        41-4.44047E-05-3.58165E-03-6.38290E-05
 -1        42-6.13946E-05-3.74101E-03-1.48137E-04
 -1        43 6.20748E-05-3.47331E-03 8.54390E-05
 -1        44-5.99959E-05-3.46570E-03 4.48495E-04
 -1        51 5.99472E-05-3.46571E-03 4.48525E-04
 -1        52-6.21302E-05-3.47330E-03 8.54586E-05
 -1        53 6.13201E-05-3.74101E-03-1.48134E-04
 -1        54 4.43368E-05-3.58164E-03-6.38286E-05
 -1        55 4.31150E-05-3.54396E-03-2.09581E-04
 -1        56 4.25258E-05-3.19605E-03-3.84815E-04
 -1        57 2.10970E-05-2.69499E-03-5.19143E-04
 -1        58 5.15292E-06-2.11214E-03-5.47817E-04
 -1        59-8.16183E-06-1.52851E-03-5.40991E-04
 -1        60-2.57720E-05-9.70890E-04-4.83956E-04
 -1        61-3.13340E-05-4.81921E-04-3.74391E-04
 -1        62-6.38283E-05-1.55657E-04-2.04509E-04
 -1        63-6.26565E-05-1.53929E-04 2.01086E-04
 -1        64-3.11751E-05-4.81363E-04 3.67045E-04
 -1        65-2.34315E-05-9.70427E-04 4.73675E-04
 -1        66-7.94620E-06-1.53501E-03 5.27313E-04
 -1        67 4.98772E-06-2.10240E-03 5.30944E-04
 -1        68 1.45671E-05-2.69552E-03 4.94014E-04
 -1        69 5.86234E-05-3.20670E-03 3.58254E-04
 -1        70 6.59482E-05-3.63526E-03 1.84578E-04
 -1        71-5.44834E-06-3.45950E-03 3.33805E-05
 -1        72-1.04609E-04-3.47830E-03 7.89760E-05
 -1        73 2.02651E-04-3.88854E-03-1.68488E-04
 -1        74 3.18190E-04-4.41216E-03-4.94632E-04
 -1        78 6.26533E-05-1.53927E-04 2.01082E-04
 -1        79 3.11651E-05-4.81363E-04 3.67038E-04
 -1        80 2.34117E-05-9.70426E-04 4.73665E-04
 -1        81 7.91491E-06-1.53501E-03 5.27302E-04
 -1        82-5.03024E-06-2.10240E-03 5.30934E-04
 -1        83-1.46219E-05-2.69552E-03 4.94004E-04
 -1        84-5.86860E-05-3.20670E-03 3.58248E-04
 -1        85-6.60195E-05-3.63526E-03 1.84575E-04
 -1        86 5.37912E-06-3.45950E-03 3.33810E-05
 -1        87 1.04532E-04-3.47830E-03 7.89798E-05
 -1        88-2.02708E-04-3.88854E-03-1.68469E-04
 -1        89-3.18241E-04-4.41216E-03-4.94603E-04
 -1        93 0.00000E+00 0.00000E+00 0.00000E+00
 -1        94 0.00000E+00 0.00000E+00 0.00000E+00
 -1        95 0.00000E+00 0.00000E+00 0.00000E+00
 -1        96 0.00000E+00 0.00000E+00 0.00000E+00
 -1        97 0.00000E+00 0.00000E+00 0.00000E+00
 -1       103-1.18056E-09-1.81936E-04-2.00715E-04
 -1       104-1.56277E-05-5.01350E-04-3.80304E-04
 -1       105-4.70098E-09-5.03877E-04-3.82946E-04
 -1       106 1.56183E-05-5.01349E-04-3.80300E-04
 -1       107-9.52888E-09-9.80981E-04-4.86671E-04
 -1       108-3.31541E-06-1.53072E-03-5.44697E-04
 -1       109-1.50451E-08-1.54136E-03-5.43621E-04
 -1       110 3.28508E-06-1.53072E-03-5.44692E-04
 -1       111-2.11309E-08-2.10330E-03-5.51606E-04
 -1       112 7.49043E-06-2.71907E-03-5.21299E-04
 -1       113-2.61931E-08-2.71232E-03-5.22903E-04
 -1       114-7.54365E-06-2.71907E-03-5.21294E-04
 -1       115-3.14371E-08-3.15779E-03-3.93299E-04
 -1       116 3.29962E-05-3.52045E-03-2.03999E-04
 -1       117-3.31468E-08-3.64282E-03-1.83104E-04
 -1       118-3.30642E-05-3.52045E-03-2.03997E-04
 -1       119-3.62362E-08-3.55506E-03-6.57704E-05
 -1       120-6.98193E-06-3.91159E-03-1.12670E-04
 -1       121-3.16232E-08-3.76568E-03-1.17658E-04
 -1       122 6.91213E-06-3.91159E-03-1.12675E-04
 -1       123-3.10103E-08-3.48376E-03-2.52343E-05
 -1       124 1.48849E-04-2.96631E-03 4.29609E-04
 -1       125-1.08567E-08-3.58873E-03 4.48733E-04
 -1       126-1.48882E-04-2.96631E-03 4.29606E-04
 -1       132 7.13591E-07-1.18680E-04-1.59069E-06
 -1       133 1.61274E-05-4.69660E-04-1.77998E-04
 -1       134 8.83630E-07-4.74375E-04-2.85872E-06
 -1       135-1.54020E-05-4.69769E-04 1.71215E-04
 -1       136-1.75636E-07-9.53353E-04-5.55031E-06
 -1       137 4.78879E-06-1.52661E-03-2.68590E-04
 -1       138 4.98773E-07-1.51882E-03-7.31755E-06
 -1       139-3.68199E-06-1.52831E-03 2.55222E-04
 -1       140 1.67488E-06-2.12625E-03-9.14092E-06
 -1       141-1.04842E-05-2.68048E-03-2.44294E-04
 -1       142 5.50613E-06-2.68701E-03-5.06300E-06
 -1       143 1.12734E-05-2.68667E-03 2.24237E-04
 -1       144-8.92644E-06-3.22011E-03-1.26364E-05
 -1       145-2.03537E-05-3.56293E-03-1.31961E-04
 -1       146-1.30135E-05-3.46601E-03-2.47194E-05
 -1       147 1.81280E-05-3.58709E-03 1.00772E-04
 -1       148 2.70362E-05-3.68195E-03-2.36706E-05
 -1       149-3.27358E-05-3.42250E-03-4.68110E-05
 -1       150 8.52436E-05-3.44962E-03-1.93108E-06
 -1       151 2.82630E-05-3.35488E-03-1.76126E-08
 -1       152-1.27007E-04-3.72160E-03 1.17692E-05
 -1       153 6.98757E-05-3.63623E-03 1.91152E-04
 -1       154-1.20278E-04-2.50379E-03-2.07698E-05
 -1       155-6.51831E-05-3.88895E-03-2.38019E-04
 -1       161-1.25843E-09-1.80735E-04 1.97000E-04
 -1       162-1.53756E-05-5.00711E-04 3.73591E-04
 -1       163-4.85795E-09-5.01426E-04 3.75763E-04
 -1       164 1.53658E-05-5.00710E-04 3.73588E-04
 -1       165-9.77515E-09-9.81045E-04 4.76656E-04
 -1       166-3.96734E-06-1.52808E-03 5.30653E-04
 -1       167-1.53651E-08-1.53731E-03 5.32882E-04
 -1       168 3.93635E-06-1.52808E-03 5.30648E-04
 -1       169-2.15499E-08-2.10416E-03 5.30936E-04
 -1       170 7.50621E-06-2.71898E-03 5.01353E-04
 -1       171-2.66704E-08-2.68098E-03 4.96942E-04
 -1       172-7.56043E-06-2.71898E-03 5.01349E-04
 -1       173-3.20369E-08-3.17843E-03 3.69024E-04
 -1       174 3.13840E-05-3.46209E-03 1.71092E-04
 -1       175-3.37164E-08-3.56208E-03 1.72729E-04
 -1       176-3.14533E-05-3.46209E-03 1.71090E-04
 -1       177-3.70454E-08-3.51203E-03 2.08302E-05
 -1       178-4.46105E-05-4.00871E-03 7.15227E-05
 -1       179-3.23125E-08-3.57951E-03 4.81604E-05
 -1       180 4.45388E-05-4.00871E-03 7.15281E-05
 -1       181-3.20723E-08-3.68397E-03-6.08707E-05
 -1       182 1.13874E-04-2.56265E-03-4.71128E-04
 -1       183-1.07533E-08-4.35469E-03-4.76482E-04
 -1       184-1.13908E-04-2.56265E-03-4.71126E-04
 -1       190-7.17279E-07-1.18680E-04-1.59469E-06
 -1       191 1.53917E-05-4.69769E-04 1.71207E-04
 -1       192-8.93849E-07-4.74375E-04-2.86633E-06
 -1       193-1.61375E-05-4.69661E-04-1.78006E-04
 -1       194 1.55906E-07-9.53353E-04-5.55989E-06
 -1       195 3.65082E-06-1.52831E-03 2.55212E-04
 -1       196-5.29776E-07-1.51882E-03-7.32828E-06
 -1       197-4.81962E-06-1.52661E-03-2.68600E-04
 -1       198-1.71692E-06-2.12625E-03-9.15144E-06
 -1       199-1.13277E-05-2.68667E-03 2.24227E-04
 -1       200-5.56003E-06-2.68701E-03-5.07261E-06
 -1       201 1.04305E-05-2.68048E-03-2.44304E-04
 -1       202 8.86483E-06-3.22011E-03-1.26429E-05
 -1       203-1.81987E-05-3.58709E-03 1.00769E-04
 -1       204 1.29435E-05-3.46601E-03-2.47228E-05
 -1       205 2.02838E-05-3.56293E-03-1.31965E-04
 -1       206-2.71041E-05-3.68195E-03-2.36700E-05
 -1       207-2.83377E-05-3.35488E-03-1.44243E-08
 -1       208-8.53178E-05-3.44962E-03-1.92823E-06
 -1       209 3.26622E-05-3.42251E-03-4.68074E-05
 -1       210 1.26952E-04-3.72161E-03 1.17886E-05
 -1       211 6.51304E-05-3.88895E-03-2.37990E-04
 -1       212 1.20227E-04-2.50379E-03-2.07419E-05
 -1       213-6.99268E-05-3.63624E-03 1.91179E-04
 -1       219-1.47487E-09-1.44460E-04-1.42230E-06
 -1       220-4.90729E-09-4.89487E-04-1.83653E-04
 -1       221-4.19347E-07-4.91015E-04-3.62364E-06
 -1       222-4.96613E-09-4.92418E-04-3.78634E-06
 -1       223 4.09425E-07-4.91015E-04-3.62003E-06
 -1       224-4.98579E-09-4.88114E-04 1.76718E-04
 -1       225-9.76210E-09-9.65518E-04-5.10765E-06
 -1       226-1.51484E-08-1.53414E-03-2.72896E-04
 -1       227-3.80349E-07-1.52004E-03-6.84221E-06
 -1       228-1.52467E-08-1.52190E-03-8.42362E-06
 -1       229 3.49624E-07-1.52004E-03-6.83695E-06
 -1       230-1.53083E-08-1.53251E-03 2.57751E-04
 -1       231-2.12884E-08-2.12484E-03-7.44146E-06
 -1       232-2.62280E-08-2.68845E-03-2.49331E-04
 -1       233-2.24836E-06-2.68424E-03-1.26658E-05
 -1       234-2.63290E-08-2.68135E-03-1.39469E-05
 -1       235 2.19495E-06-2.68424E-03-1.26613E-05
 -1       236-2.64665E-08-2.67126E-03 2.27165E-04
 -1       237-3.14691E-08-3.19248E-03-9.29283E-06
 -1       238-3.30871E-08-3.61171E-03-1.24049E-04
 -1       239 5.73228E-06-3.45379E-03-1.43422E-05
 -1       240-3.31908E-08-3.47771E-03-2.00222E-05
 -1       241-5.80039E-06-3.45379E-03-1.43400E-05
 -1       242-3.33709E-08-3.57435E-03 8.84649E-05
 -1       243-3.62965E-08-3.65623E-03-2.11988E-05
 -1       244-3.15920E-08-3.52108E-03-2.04334E-05
 -1       245-3.38383E-05-3.61204E-03-2.61551E-05
 -1       246-3.17378E-08-3.65213E-03-1.97435E-05
 -1       247 3.37686E-05-3.61204E-03-2.61599E-05
 -1       248-3.19397E-08-3.43707E-03-1.00099E-05
 -1       249-3.05430E-08-3.52294E-03-1.32026E-05
 -1       250-1.04671E-08-4.08136E-03 1.74687E-04
 -1       251 3.02803E-05-2.57221E-03-1.03351E-05
 -1       252-1.06854E-08-3.12303E-03-1.55470E-05
 -1       253-3.03153E-05-2.57222E-03-1.03366E-05
 -1       254-1.03752E-08-4.41249E-03-2.54126E-04
 -3
    1PSTEP                         2           2           1          
  100CL  102 1.00000E-02         201                     1    2           1
 -4  DISP        4    1
 -5  D1          1    2    1    0
 -5  D2          1    2    2    0
 -5  D3          1    2    3    0
 -5  ALL         1    2    0    0    1ALL
 -1         1 0.00000E+00 0.00000E+00 0.00000E+00
 -1         2 0.00000E+00 0.00000E+00 0.00000E+00
 -1         3 0.00000E+00 0.00000E+00 0.00000E+00
 -1         4 0.00000E+00 0.00000E+00 0.00000E+00
 -1         9 0.00000E+00 0.00000E+00 0.00000E+00
 -1        10 0.00000E+00 0.00000E+00 0.00000E+00
 -1        11 0.00000E+00 0.00000E+00 0.00000E+00
 -1        12 0.00000E+00 0.00000E+00 0.00000E+00
 -1        13 0.00000E+00 0.00000E+00 0.00000E+00
 -1        14 0.00000E+00 0.00000E+00 0.00000E+00
 -1        15 0.00000E+00 0.00000E+00 0.00000E+00
 -1        16 0.00000E+00 0.00000E+00 0.00000E+00
 -1        17 0.00000E+00 0.00000E+00 0.00000E+00
 -1        18 0.00000E+00 0.00000E+00 0.00000E+00
 -1        19 0.00000E+00 0.00000E+00 0.00000E+00
 -1        20 0.00000E+00 0.00000E+00 0.00000E+00
 -1        33-3.19925E-05 7.91883E-05 1.03019E-04
 -1        34-1.54823E-05 2.44860E-04 1.87765E-04
 -1        35-1.27669E-05 4.92596E-04 2.42748E-04
 -1        36-4.55086E-06 7.74392E-04 2.70076E-04
 -1        37 4.34442E-06 1.07200E-03 2.71889E-04
 -1        38 1.35675E-05 1.36798E-03 2.50385E-04
 -1        39 2.05208E-05 1.60869E-03 1.85215E-04
 -1        40 1.35211E-05 1.78306E-03 9.23337E-05
 -1        41 3.59281E-05 1.81863E-03 2.07772E-05
 -1        42 4.65980E-05 1.87548E-03 1.13360E-05
 -1        43-4.22347E-05 1.69235E-03-7.82451E-05
 -1        44-1.57723E-04 1.59957E-03-2.33980E-04
 -1        51 1.57736E-04 1.59951E-03-2.33971E-04
 -1        52 4.22393E-05 1.69221E-03-7.82403E-05
 -1        53-4.66157E-05 1.87539E-03 1.13581E-05
 -1        54-3.59648E-05 1.81852E-03 2.07789E-05
 -1        55-1.35606E-05 1.78298E-03 9.23237E-05
 -1        56-2.05595E-05 1.60861E-03 1.85199E-04
 -1        57-1.35983E-05 1.36791E-03 2.50367E-04
 -1        58-4.36670E-06 1.07195E-03 2.71868E-04
 -1        59 4.54000E-06 7.74346E-04 2.70055E-04
 -1        60 1.27649E-05 4.92560E-04 2.42730E-04
 -1        61 1.54866E-05 2.44837E-04 1.87751E-04
 -1        62 3.19969E-05 7.91755E-05 1.03011E-04
 -1        63 3.19874E-05 7.91714E-05-1.02994E-04
 -1        64 1.54720E-05 2.44848E-04-1.87715E-04
 -1        65 1.26916E-05 4.92619E-04-2.42678E-04
 -1        66 4.44654E-06 7.74461E-04-2.69987E-04
 -1        67-4.30859E-06 1.07185E-03-2.71786E-04
 -1        68-1.34216E-05 1.36777E-03-2.50246E-04
 -1        69-2.11983E-05 1.60920E-03-1.85065E-04
 -1        70-1.46614E-05 1.78431E-03-9.21999E-05
 -1        71-3.38781E-05 1.81620E-03-2.06231E-05
 -1        72-4.15789E-05 1.86998E-03-1.10106E-05
 -1        73 3.25158E-05 1.70246E-03 7.86279E-05
 -1        74 1.41188E-04 1.61808E-03 2.34191E-04
 -1        78-3.20037E-05 7.91633E-05-1.03002E-04