    1C
    1UUSER                                                              
    1UDATE              17.july.2018                                    
    1UTIME              21:32:41                                        
    1UHOST                                                              
    1UPGM               CalculiX                                        
    1UVERSION           Version 2.13                             
    1UCOMPILETIME       jue jun 14 00:40:39 CEST 2018                    
    1UDIR                                                               
    1UDBN                                                               
    1UMAT    1EL                                                        
    2C                            81                                     1
 -1         5 0.00000E+00 0.00000E+00 8.00000E+00
 -1         6 1.00000E+00 0.00000E+00 8.00000E+00
 -1         7 1.00000E+00 1.00000E+00 8.00000E+00
 -1         8 0.00000E+00 1.00000E+00 8.00000E+00
 -1        21 2.50000E-01 0.00000E+00 8.00000E+00
 -1        22 5.00000E-01 0.00000E+00 8.00000E+00
 -1        23 7.50000E-01 0.00000E+00 8.00000E+00
 -1        24 1.00000E+00 2.50000E-01 8.00000E+00
 -1        25 1.00000E+00 5.00000E-01 8.00000E+00
 -1        26 1.00000E+00 7.50000E-01 8.00000E+00
 -1        27 7.50000E-01 1.00000E+00 8.00000E+00
 -1        28 5.00000E-01 1.00000E+00 8.00000E+00
 -1        29 2.50000E-01 1.00000E+00 8.00000E+00
 -1        30 0.00000E+00 7.50000E-01 8.00000E+00
 -1        31 0.00000E+00 5.00000E-01 8.00000E+00
 -1        32 0.00000E+00 2.50000E-01 8.00000E+00
 -1        44 1.00000E+00 0.00000E+00 6.00000E+00
 -1        45 1.00000E+00 0.00000E+00 6.50000E+00
 -1        46 1.00000E+00 0.00000E+00 7.00000E+00
 -1        47 1.00000E+00 0.00000E+00 7.50000E+00
 -1        48 0.00000E+00 0.00000E+00 7.50000E+00
 -1        49 0.00000E+00 0.00000E+00 7.00000E+00
 -1        50 0.00000E+00 0.00000E+00 6.50000E+00
 -1        51 0.00000E+00 0.00000E+00 6.00000E+00
 -1        74 1.00000E+00 1.00000E+00 6.00000E+00
 -1        75 1.00000E+00 1.00000E+00 6.50000E+00
 -1        76 1.00000E+00 1.00000E+00 7.00000E+00
 -1        77 1.00000E+00 1.00000E+00 7.50000E+00
 -1        89 0.00000E+00 1.00000E+00 6.00000E+00
 -1        90 0.00000E+00 1.00000E+00 6.50000E+00
 -1        91 0.00000E+00 1.00000E+00 7.00000E+00
 -1        92 0.00000E+00 1.00000E+00 7.50000E+00
 -1        98 5.00000E-01 2.50000E-01 8.00000E+00
 -1        99 2.50000E-01 5.00000E-01 8.00000E+00
 -1       100 5.00000E-01 5.00000E-01 8.00000E+00
 -1       101 7.50000E-01 5.00000E-01 8.00000E+00
 -1       102 5.00000E-01 7.50000E-01 8.00000E+00
 -1       124 2.50000E-01 0.00000E+00 6.00000E+00
 -1       125 5.00000E-01 0.00000E+00 6.00000E+00
 -1       126 7.50000E-01 0.00000E+00 6.00000E+00
 -1       127 5.00000E-01 0.00000E+00 6.50000E+00
 -1       128 2.50000E-01 0.00000E+00 7.00000E+00
 -1       129 5.00000E-01 0.00000E+00 7.00000E+00
 -1       130 7.50000E-01 0.00000E+00 7.00000E+00
 -1       131 5.00000E-01 0.00000E+00 7.50000E+00
 -1       153 1.00000E+00 2.50000E-01 6.00000E+00
 -1       154 1.00000E+00 5.00000E-01 6.00000E+00
 -1       155 1.00000E+00 7.50000E-01 6.00000E+00
 -1       156 1.00000E+00 5.00000E-01 6.50000E+00
 -1       157 1.00000E+00 2.50000E-01 7.00000E+00
 -1       158 1.00000E+00 5.00000E-01 7.00000E+00
 -1       159 1.00000E+00 7.50000E-01 7.00000E+00
 -1       160 1.00000E+00 5.00000E-01 7.50000E+00
 -1       182 7.50000E-01 1.00000E+00 6.00000E+00
 -1       183 5.00000E-01 1.00000E+00 6.00000E+00
 -1       184 2.50000E-01 1.00000E+00 6.00000E+00
 -1       185 5.00000E-01 1.00000E+00 6.50000E+00
 -1       186 7.50000E-01 1.00000E+00 7.00000E+00
 -1       187 5.00000E-01 1.00000E+00 7.00000E+00
 -1       188 2.50000E-01 1.00000E+00 7.00000E+00
 -1       189 5.00000E-01 1.00000E+00 7.50000E+00
 -1       211 0.00000E+00 7.50000E-01 6.00000E+00
 -1       212 0.00000E+00 5.00000E-01 6.00000E+00
 -1       213 0.00000E+00 2.50000E-01 6.00000E+00
 -1       214 0.00000E+00 5.00000E-01 6.50000E+00
 -1       215 0.00000E+00 7.50000E-01 7.00000E+00
 -1       216 0.00000E+00 5.00000E-01 7.00000E+00
 -1       217 0.00000E+00 2.50000E-01 7.00000E+00
 -1       218 0.00000E+00 5.00000E-01 7.50000E+00
 -1       250 5.00000E-01 2.50000E-01 6.00000E+00
 -1       251 2.50000E-01 5.00000E-01 6.00000E+00
 -1       252 5.00000E-01 5.00000E-01 6.00000E+00
 -1       253 7.50000E-01 5.00000E-01 6.00000E+00
 -1       254 5.00000E-01 7.50000E-01 6.00000E+00
 -1       255 5.00000E-01 5.00000E-01 6.50000E+00
 -1       256 5.00000E-01 2.50000E-01 7.00000E+00
 -1       257 2.50000E-01 5.00000E-01 7.00000E+00
 -1       258 5.00000E-01 5.00000E-01 7.00000E+00
 -1       259 7.50000E-01 5.00000E-01 7.00000E+00
 -1       260 5.00000E-01 7.50000E-01 7.00000E+00
 -1       261 5.00000E-01 5.00000E-01 7.50000E+00
 -3
    3C                             8                                     1
 -1        25    4    0    1
 -2        51       125       252       212        49       129       258       216       124       250
 -2       251       213        50       127       255       214       128       256       257       217
 -1        26    4    0    1
 -2       125        44       154       252       129        46       158       258       126       153
 -2       253       250       127        45       156       255       130       157       259       256
 -1        27    4    0    1
 -2       212       252       183        89       216       258       187        91       251       254
 -2       184       211       214       255       185        90       257       260       188       215
 -1        28    4    0    1
 -2       252       154        74       183       258       158        76       187       253       155
 -2       182       254       255       156        75       185       259       159       186       260
 -1        29    4    0    1
 -2        49       129       258       216         5        22       100        31       128       256
 -2       257       217        48       131       261       218        21        98        99        32
 -1        30    4    0    1
 -2       129        46       158       258        22         6        25       100       130       157
 -2       259       256       131        47       160       261        23        24       101        98
 -1        31    4    0    1
 -2       216       258       187        91        31       100        28         8       257       260
 -2       188       215       218       261       189        92        99       102        29        30
 -1        32    4    0    1
 -2       258       158        76       187       100        25         7        28       259       159
 -2       186       260       261       160        77       189       101        26        27       102
 -3
    1PSTEP                         1           1           1          
  100CL  101 5.00000E-03          81                     1    1           1
 -4  DISP        4    1
 -5  D1          1    2    1    0
 -5  D2          1    2    2    0
 -5  D3          1    2    3    0
 -5  ALL         1    2    0    0    1ALL
 -1         5 0.00000E+00 0.00000E+00 0.00000E+00
 -1         6 0.00000E+00 0.00000E+00 0.00000E+00
 -1         7 0.00000E+00 0.00000E+00 0.00000E+00
 -1         8 0.00000E+00 0.00000E+00 0.00000E+00
 -1        21 0.00000E+00 0.00000E+00 0.00000E+00
 -1        22 0.00000E+00 0.00000E+00 0.00000E+00
 -1        23 0.00000E+00 0.00000E+00 0.00000E+00
 -1        24 0.00000E+00 0.00000E+00 0.00000E+00
 -1        25 0.00000E+00 0.00000E+00 0.00000E+00
 -1        26 0.00000E+00 0.00000E+00 0.00000E+00
 -1        27 0.00000E+00 0.00000E+00 0.00000E+00
 -1        28 0.00000E+00 0.00000E+00 0.00000E+00
 -1        29 0.00000E+00 0.00000E+00 0.00000E+00
 -1        30 0.00000E+00 0.00000E+00 0.00000E+00
 -1        31 0.00000E+00 0.00000E+00 0.00000E+00
 -1        32 0.00000E+00 0.00000E+00 0.00000E+00
 -1        44-6.12819E-05-3.46778E-03 4.48236E-04
 -1        45 5.56277E-05-2.56321E-03 7.85303E-04
 -1        46-4.72187E-05-1.79506E-03 9.49026E-04
 -1        47 1.31253E-04-6.74594E-04 5.43142E-04
 -1        48-1.31252E-04-6.74593E-04 5.43139E-04
 -1        49 4.72185E-05-1.79508E-03 9.49037E-04
 -1        50-5.56113E-05-2.56320E-03 7.85283E-04
 -1        51 6.13345E-05-3.46773E-03 4.48214E-04
 -1        74 3.16156E-04-4.40763E-03-4.94363E-04
 -1        75 1.89429E-04-2.96989E-03-7.84740E-04
 -1        76-1.09383E-04-1.59886E-03-9.49921E-04
 -1        77-2.07393E-04-5.27348E-04-5.58181E-04
 -1        89-3.16057E-04-4.40765E-03-4.94359E-04
 -1        90-1.89414E-04-2.96988E-03-7.84721E-04
 -1        91 1.09390E-04-1.59886E-03-9.49922E-04
 -1        92 2.07388E-04-5.27351E-04-5.58184E-04
 -1        98 0.00000E+00 0.00000E+00 0.00000E+00
 -1        99 0.00000E+00 0.00000E+00 0.00000E+00
 -1       100 0.00000E+00 0.00000E+00 0.00000E+00
 -1       101 0.00000E+00 0.00000E+00 0.00000E+00
 -1       102 0.00000E+00 0.00000E+00 0.00000E+00
 -1       124 1.50457E-04-2.96456E-03 4.29245E-04
 -1       125 4.34533E-08-3.59085E-03 4.48450E-04
 -1       126-1.50351E-04-2.96450E-03 4.29229E-04
 -1       127 7.82415E-10-2.56298E-03 9.03145E-04
 -1       128-9.42717E-06-1.95296E-03 9.48084E-04
 -1       129 1.23539E-08-1.81378E-03 9.41318E-04
 -1       130 9.43018E-06-1.95297E-03 9.48083E-04
 -1       131 4.73525E-10-7.36223E-04 5.56266E-04
 -1       153 7.00725E-05-3.63771E-03 1.90940E-04
 -1       154-1.20287E-04-2.50309E-03-2.09629E-05
 -1       155-6.42197E-05-3.88774E-03-2.37897E-04
 -1       156-1.19589E-04-2.78913E-03-6.43539E-05
 -1       157-2.05995E-05-1.50858E-03 3.92236E-04
 -1       158 8.81428E-05-1.56705E-03-2.92874E-05
 -1       159 4.66067E-05-1.47598E-03-4.11040E-04
 -1       160 3.96528E-05-6.56529E-04 4.89271E-06
 -1       182 1.14086E-04-2.56395E-03-4.71010E-04
 -1       183 1.60130E-08-4.35265E-03-4.76375E-04
 -1       184-1.14001E-04-2.56388E-03-4.71009E-04
 -1       185 8.88655E-09-2.83295E-03-8.74165E-04
 -1       186-4.37749E-05-2.16189E-03-9.82603E-04
 -1       187 2.82435E-09-1.83193E-03-9.63804E-04
 -1       188 4.37764E-05-2.16191E-03-9.82603E-04
 -1       189 1.51964E-09-7.20029E-04-5.64511E-04
 -1       211 6.41989E-05-3.88771E-03-2.37914E-04
 -1       212 1.20393E-04-2.50308E-03-2.09594E-05
 -1       213-7.00616E-05-3.63772E-03 1.90940E-04
 -1       214 1.19657E-04-2.78914E-03-6.43589E-05
 -1       215-4.65909E-05-1.47598E-03-4.11045E-04
 -1       216-8.81792E-05-1.56704E-03-2.92975E-05
 -1       217 2.05995E-05-1.50858E-03 3.92233E-04
 -1       218-3.96655E-05-6.56528E-04 4.89026E-06
 -1       250 2.79741E-08-4.08082E-03 1.74413E-04
 -1       251 2.98021E-05-2.57168E-03-1.05274E-05
 -1       252-4.87290E-09-3.12317E-03-1.60480E-05
 -1       253-2.98094E-05-2.57172E-03-1.05243E-05
 -1       254 1.95861E-09-4.41172E-03-2.54242E-04
 -1       255 4.06722E-09-2.59924E-03-3.20849E-05
 -1       256 4.45742E-09-1.60728E-03 3.95597E-04
 -1       257-4.08822E-05-1.74932E-03-1.20831E-05
 -1       258 1.40426E-09-1.79013E-03-1.45856E-05
 -1       259 4.08787E-05-1.74932E-03-1.20764E-05
 -1       260 2.00500E-09-1.62248E-03-4.18295E-04
 -1       261 1.36562E-09-7.16998E-04-1.96090E-06
 -3
    1PSTEP                         2           2           1          
  100CL  102 1.00000E-02          81                     1    2           1
 -4  DISP        4    1
 -5  D1          1    2    1    0
 -5  D2          1    2    2    0
 -5  D3          1    2    3    0
 -5  ALL         1    2    0    0    1ALL
 -1         5 0.00000E+00 0.00000E+00 0.00000E+00
 -1         6 0.00000E+00 0.00000E+00 0.00000E+00
 -1         7 0.00000E+00 0.00000E+00 0.00000E+00
 -1         8 0.00000E+00 0.00000E+00 0.00000E+00
 -1        21 0.00000E+00 0.00000E+00 0.00000E+00
 -1        22 0.00000E+00 0.00000E+00 0.00000E+00
 -1        23 0.00000E+00 0.00000E+00 0.00000E+00
 -1        24 0.00000E+00 0.00000E+00 0.00000E+00
 -1        25 0.00000E+00 0.00000E+00 0.00000E+00
 -1        26 0.00000E+00 0.00000E+00 0.00000E+00
 -1        27 0.00000E+00 0.00000E+00 0.00000E+00
 -1        28 0.00000E+00 0.00000E+00 0.00000E+00
 -1        29 0.00000E+00 0.00000E+00 0.00000E+00
 -1        30 0.00000E+00 0.00000E+00 0.00000E+00
 -1        31 0.00000E+00 0.00000E+00 0.00000E+00
 -1        32 0.00000E+00 0.00000E+00 0.00000E+00
 -1        44-1.59065E-04 1.60523E-03-2.33706E-04
 -1        45-3.85828E-05 1.24803E-03-3.77199E-04
 -1        46 4.24887E-05 9.13686E-04-4.32126E-04
 -1        47-5.31231E-05 3.70347E-04-2.84101E-04
 -1        48 5.31145E-05 3.70345E-04-2.84061E-04
 -1        49-4.24867E-05 9.13681E-04-4.32069E-04
 -1        50 3.84189E-05 1.24806E-03-3.77216E-04
 -1        51 1.58808E-04 1.60537E-03-2.33706E-04
 -1        74 1.47387E-04 1.61886E-03 2.34009E-04
 -1        75 3.18151E-05 1.25523E-03 3.77231E-04
 -1        76-4.03079E-05 9.11582E-04 4.32239E-04
 -1        77 5.50003E-05 3.68267E-04 2.84186E-04
 -1        89-1.47580E-04 1.61874E-03 2.33996E-04
 -1        90-3.19648E-05 1.25522E-03 3.77216E-04
 -1        91 4.03398E-05 9.11591E-04 4.32283E-04
 -1        92-5.49990E-05 3.68289E-04 2.84231E-04
 -1        98 0.00000E+00 0.00000E+00 0.00000E+00
 -1        99 0.00000E+00 0.00000E+00 0.00000E+00
 -1       100 0.00000E+00 0.00000E+00 0.00000E+00
 -1       101 0.00000E+00 0.00000E+00 0.00000E+00
 -1       102 0.00000E+00 0.00000E+00 0.00000E+00
 -1       124 1.37277E-05 1.48079E-03-2.20177E-04
 -1       125-1.66134E-07 1.76975E-03-2.31103E-04
 -1       126-1.40238E-05 1.48072E-03-2.20207E-04
 -1       127-3.48754E-08 1.30247E-03-4.18270E-04
 -1       128-5.14507E-06 9.59088E-04-4.63678E-04
 -1       129-4.49560E-08 8.90105E-04-4.72905E-04
 -1       130 5.10132E-06 9.59092E-04-4.63694E-04
 -1       131-7.18336E-10 3.75112E-04-2.75999E-04
 -1       153 1.28527E-04 1.90978E-03-1.03843E-04
 -1       154-1.54177E-06 1.69753E-03 1.30998E-07
 -1       155-1.25012E-04 1.92555E-03 1.04098E-04
 -1       156 4.09672E-07 1.40775E-03 9.86341E-07
 -1       157-2.60004E-05 7.94403E-04-1.86116E-04
 -1       158 3.00910E-07 8.09660E-04 3.22509E-07
 -1       159 2.50602E-05 7.91408E-04 1.86162E-04
 -1       160-2.14992E-07 3.07820E-04-5.12763E-08
 -1       182-1.08896E-06 1.47607E-03 2.20684E-04
 -1       183-1.59494E-07 1.77566E-03 2.31291E-04
 -1       184 8.49689E-07 1.47602E-03 2.20757E-04
 -1       185-1.31766E-08 1.30323E-03 4.16889E-04
 -1       186-2.02281E-06 9.60737E-04 4.63939E-04
 -1       187-3.96247E-08 8.89368E-04 4.72648E-04
 -1       188 1.99424E-06 9.60741E-04 4.63943E-04
 -1       189 5.18232E-09 3.75375E-04 2.76151E-04
 -1       211 1.24934E-04 1.92546E-03 1.04171E-04
 -1       212 1.28224E-06 1.69762E-03 6.95729E-08
 -1       213-1.28667E-04 1.90998E-03-1.03723E-04
 -1       214-4.95459E-07 1.40777E-03 1.03219E-06
 -1       215-2.50980E-05 7.91434E-04 1.86184E-04
 -1       216-3.38239E-07 8.09673E-04 3.72170E-07
 -1       217 2.59542E-05 7.94393E-04-1.86095E-04
 -1       218 2.18573E-07 3.07821E-04-4.01533E-08
 -1       250-8.07540E-08 1.91931E-03-1.02670E-04
 -1       251-5.82276E-06 1.20914E-03-1.54038E-07
 -1       252 4.28510E-08 1.54264E-03 2.60755E-07
 -1       253 5.76896E-06 1.20911E-03-5.90388E-08
 -1       254-7.08185E-08 1.90889E-03 1.03499E-04
 -1       255-4.83915E-08 1.37567E-03 2.48497E-07
 -1       256-1.70672E-08 7.81655E-04-2.07338E-04
 -1       257 1.28832E-06 9.14514E-04 1.23667E-07
 -1       258 2.33011E-09 8.12430E-04 8.93378E-08
 -1       259-1.30982E-06 9.14502E-04 8.11101E-08
 -1       260-1.59405E-08 7.84244E-04 2.07511E-04
 -1       261-1.21332E-08 3.48593E-04-5.17435E-09
 -3
    1PSTEP                         3           3           1          
  100CL  103 1.50000E-02          81                     1    3           1
 -4  DISP        4    1
 -5  D1          1    2    1    0
 -5  D2          1    2    2    0
 -5  D3          1    2    3    0
 -5  ALL         1    2    0    0    1ALL
 -1         5 0.00000E+00 0.00000E+00 0.00000E+00
 -1         6 0.00000E+00 0.00000E+00 0.00000E+00
 -1         7 0.00000E+00 0.00000E+00 0.00000E+00
 -1         8 0.00000E+00 0.00000E+00 0.00000E+00
 -1        21 0.00000E+00 0.00000E+00 0.00000E+00
 -1        22 0.00000E+00 0.00000E+00 0.00000E+00
 -1        23 0.00000E+00 0.00000E+00 0.00000E+00
 -1        24 0.00000E+00 0.00000E+00 0.00000E+00
 -1        25 0.00000E+00 0.00000E+00 0.00000E+00
 -1        26 0.00000E+00 0.00000E+00 0.00000E+00
 -1        27 0.00000E+00 0.00000E+00 0.00000E+00
 -1        28 0.00000E+00 0.00000E+00 0.00000E+00
 -1        29 0.00000E+00 0.00000E+00 0.00000E+00
 -1        30 0.00000E+00 0.00000E+00 0.00000E+00
 -1        31 0.00000E+00 0.00000E+00 0.00000E+00
 -1        32 0.00000E+00 0.00000E+00 0.00000E+00
 -1        44 1.21681E-04-1.27409E-03 1.84920E-04
 -1        45 2.79387E-05-9.89374E-04 2.98851E-04
 -1        46-3.30719E-05-7.24373E-04 3.42153E-04
 -1        47 4.25983E-05-2.93243E-04 2.25112E-04
 -1        48-4.25950E-05-2.93247E-04 2.25091E-04
 -1        49 3.30630E-05-7.24382E-04 3.42129E-04
 -1        50-2.78642E-05-9.89397E-04 2.98868E-04
 -1        51-1.21540E-04-1.27417E-03 1.84906E-04
 -1        74-1.21632E-04-1.27271E-03-1.85031E-04
 -1        75-2.81670E-05-9.88893E-04-2.98952E-04
 -1        76 3.33076E-05-7.24839E-04-3.42228E-04
 -1        77-4.25502E-05-2.93452E-04-2.25122E-04
 -1        89 1.21670E-04-1.27270E-03-1.85008E-04
 -1        90 2.82185E-05-9.88873E-04-2.98918E-04
 -1        91-3.33436E-05-7.24858E-04-3.42233E-04
 -1        92 4.25427E-05-2.93465E-04-2.25138E-04
 -1        98 0.00000E+00 0.00000E+00 0.00000E+00
 -1        99 0.00000E+00 0.00000E+00 0.00000E+00
 -1       100 0.00000E+00 0.00000E+00 0.00000E+00
 -1       101 0.00000E+00 0.00000E+00 0.00000E+00
 -1       102 0.00000E+00 0.00000E+00 0.00000E+00
 -1       124-4.46847E-06-1.17149E-03 1.74124E-04
 -1       125 1.02420E-07-1.40132E-03 1.82891E-04
 -1       126 4.64695E-06-1.17143E-03 1.74155E-04
 -1       127 6.52826E-09-1.03174E-03 3.30125E-04
 -1       128 2.82833E-06-7.60002E-04 3.67213E-04
 -1       129 2.56417E-08-7.04225E-04 3.74249E-04
 -1       130-2.80840E-06-7.60002E-04 3.67216E-04
 -1       131-7.03989E-10-2.97303E-04 2.18594E-04
 -1       153-1.00377E-04-1.52077E-03 8.20998E-05
 -1       154 3.71708E-07-1.34555E-03-9.69889E-08
 -1       155 1.00270E-04-1.52098E-03-8.22060E-05
 -1       156 2.75851E-07-1.11413E-03-1.15272E-08
 -1       157 2.01269E-05-6.28557E-04 1.47233E-04
 -1       158-1.83155E-07-6.42254E-04 1.50440E-08
 -1       159-2.00660E-05-6.28590E-04-1.47270E-04
 -1       160-6.37745E-08-2.44095E-04-5.32192E-09
 -1       182-3.70538E-06-1.17221E-03-1.74276E-04
 -1       183 6.40377E-08-1.40017E-03-1.83029E-04
 -1       184 3.78601E-06-1.17220E-03-1.74306E-04
 -1       185-9.45240E-09-1.03141E-03-3.30254E-04
 -1       186 2.74778E-06-7.59901E-04-3.67248E-04
 -1       187 1.67431E-08-7.04584E-04-3.74304E-04
 -1       188-2.74728E-06-7.59913E-04-3.67240E-04
 -1       189-5.96125E-09-2.97479E-04-2.18643E-04
 -1       211-1.00305E-04-1.52093E-03-8.21875E-05
 -1       212-2.54768E-07-1.34559E-03-3.19873E-08
 -1       213 1.00437E-04-1.52089E-03 8.20139E-05
 -1       214-2.50031E-07-1.11417E-03-2.19922E-08
 -1       215 2.00751E-05-6.28610E-04-1.47275E-04
 -1       216 1.85762E-07-6.42253E-04-2.53791E-09
 -1       217-2.01130E-05-6.28550E-04 1.47235E-04
 -1       218 5.42274E-08-2.44099E-04-2.79737E-09
 -1       250 3.23310E-08-1.51123E-03 8.15142E-05
 -1       251 1.70391E-07-9.56975E-04-1.48141E-08
 -1       252-6.06567E-08-1.22033E-03-5.76143E-08
 -1       253-2.00701E-07-9.56982E-04-9.17728E-08
 -1       254 5.40054E-09-1.51017E-03-8.16218E-05
 -1       255 1.61212E-08-1.09042E-03-5.35929E-08
 -1       256 3.88633E-09-6.20152E-04 1.64311E-04
 -1       257 9.12252E-09-7.24464E-04-4.36456E-08
 -1       258-1.20362E-08-6.42600E-04-3.08642E-08
 -1       259-1.45416E-08-7.24459E-04-2.23515E-08
 -1       260 1.30972E-09-6.20454E-04-1.64363E-04
 -1       261 5.98898E-09-2.75992E-04 7.68902E-09
 -3
    1PSTEP                         4           4           1          
  100CL  104 2.00000E-02          81                     1    4           1
 -4  DISP        4    1
 -5  D1          1    2    1    0
 -5  D2          1    2    2    0
 -5  D3          1    2    3    0
 -5  ALL         1    2    0    0    1ALL
 -1         5 0.00000E+00 0.00000E+00 0.00000E+00
 -1         6 0.00000E+00 0.00000E+00 0.00000E+00
 -1         7 0.00000E+00 0.00000E+00 0.00000E+00
 -1         8 0.00000E+00 0.00000E+00 0.00000E+00
 -1        21 0.00000E+00 0.00000E+00 0.00000E+00
 -1        22 0.00000E+00 0.00000E+00 0.00000E+00
 -1        23 0.00000E+00 0.00000E+00 0.00000E+00
 -1        24 0.00000E+00 0.00000E+00 0.00000E+00
 -1        25 0.00000E+00 0.00000E+00 0.00000E+00
 -1        26 0.00000E+00 0.00000E+00 0.00000E+00
 -1        27 0.00000E+00 0.00000E+00 0.00000E+00
 -1        28 0.00000E+00 0.00000E+00 0.00000E+00
 -1        29 0.00000E+00 0.00000E+00 0.00000E+00
 -1        30 0.00000E+00 0.00000E+00 0.00000E+00
 -1        31 0.00000E+00 0.00000E+00 0.00000E+00
 -1        32 0.00000E+00 0.00000E+00 0.00000E+00
 -1        44-9.48794E-05 9.89039E-04-1.43265E-04
 -1        45-2.16894E-05 7.68109E-04-2.31976E-04
 -1        46 2.57240E-05 5.62501E-04-2.65663E-04
 -1        47-3.30545E-05 2.27655E-04-1.74786E-04
 -1        48 3.30457E-05 2.27660E-04-1.74755E-04
 -1        49-2.57167E-05 5.62512E-04-2.65626E-04
 -1        50 2.15737E-05 7.68152E-04-2.32006E-04
 -1        51 9.47025E-05 9.89193E-04-1.43272E-04
 -1        74 9.52850E-05 9.87264E-04 1.43341E-04
 -1        75 2.21911E-05 7.67397E-04 2.32064E-04
 -1        76-2.60518E-05 5.62964E-04 2.65704E-04
 -1        77 3.29220E-05 2.27927E-04 1.74777E-04
 -1        89-9.53112E-05 9.87242E-04 1.43318E-04
 -1        90-2.22628E-05 7.67382E-04 2.32026E-04
 -1        91 2.61029E-05 5.62996E-04 2.65722E-04
 -1        92-3.29129E-05 2.27944E-04 1.74803E-04
 -1        98 0.00000E+00 0.00000E+00 0.00000E+00
 -1        99 0.00000E+00 0.00000E+00 0.00000E+00
 -1       100 0.00000E+00 0.00000E+00 0.00000E+00
 -1       101 0.00000E+00 0.00000E+00 0.00000E+00
 -1       102 0.00000E+00 0.00000E+00 0.00000E+00
 -1       124 3.24948E-06 9.09148E-04-1.34842E-04
 -1       125-1.36408E-07 1.08818E-03-1.41691E-04
 -1       126-3.46812E-06 9.09085E-04-1.34878E-04
 -1       127-1.64694E-08 8.01138E-04-2.56281E-04
 -1       128-2.14564E-06 5.90200E-04-2.85189E-04
 -1       129-3.62568E-08 5.46712E-04-2.90669E-04
 -1       130 2.11115E-06 5.90193E-04-2.85194E-04
 -1       131-3.55842E-10 2.30758E-04-1.69686E-04
 -1       153 7.82759E-05 1.18163E-03-6.35929E-05
 -1       154-2.48339E-07 1.04532E-03 1.13744E-07
 -1       155-7.83594E-05 1.18111E-03 6.36364E-05
 -1       156-2.82461E-07 8.65245E-04-2.25601E-08
 -1       157-1.57250E-05 4.87850E-04-1.14302E-04
 -1       158 1.52331E-07 4.98541E-04-4.33444E-08
 -1       159 1.57053E-05 4.87997E-04 1.14323E-04
 -1       160 6.68859E-08 1.89421E-04 2.16612E-09
 -1       182 3.21863E-06 9.09998E-04 1.34947E-04
 -1       183-8.48361E-08 1.08698E-03 1.41820E-04
 -1       184-3.30444E-06 9.10009E-04 1.35007E-04
 -1       185 1.65712E-08 8.00778E-04 2.56498E-04
 -1       186-2.21500E-06 5.90032E-04 2.85199E-04
 -1       187-2.29090E-08 5.47087E-04 2.90716E-04
 -1       188 2.21335E-06 5.90045E-04 2.85191E-04
 -1       189 8.89108E-09 2.30902E-04 1.69717E-04
 -1       211 7.83907E-05 1.18106E-03 6.36265E-05
 -1       212 1.24007E-07 1.04538E-03 2.27701E-08
 -1       213-7.83562E-05 1.18179E-03-6.34926E-05
 -1       214 2.60351E-07 8.65295E-04-7.15564E-09
 -1       215-1.57140E-05 4.88029E-04 1.14331E-04
 -1       216-1.73543E-07 4.98547E-04-1.84976E-08
 -1       217 1.57013E-05 4.87847E-04-1.14303E-04
 -1       218-6.11770E-08 1.89429E-04 1.50651E-09
 -1       250-4.54050E-08 1.17337E-03-6.31335E-05
 -1       251 6.95590E-08 7.42186E-04 9.37168E-09
 -1       252 7.02082E-08 9.47356E-04 9.49034E-08
 -1       253-4.51036E-08 7.42177E-04 1.11916E-07
 -1       254-1.52648E-08 1.17302E-03 6.32041E-05
 -1       255-2.39208E-08 8.46848E-04 2.27852E-08
 -1       256-9.02199E-09 4.81344E-04-1.27603E-04
 -1       257-6.92709E-08 5.62578E-04 3.80816E-08
 -1       258 1.25163E-08 4.98697E-04 1.70528E-08
 -1       259 6.91959E-08 5.62569E-04 1.05068E-08
 -1       260-3.43816E-09 4.81487E-04 1.27642E-04
 -1       261-8.30005E-09 2.14230E-04-1.08161E-08
 -3
    1PSTEP                         5           5           1          
  100CL  105 2.50000E-02          81                     1    5           1
 -4  DISP        4    1
 -5  D1          1    2    1    0
 -5  D2          1    2    2    0
 -5  D3          1    2    3    0
 -5  ALL         1    2    0    0    1ALL
 -1         5 0.00000E+00 0.00000E+00 0.00000E+00
 -1         6 0.00000E+00 0.00000E+00 0.00000E+00
 -1         7 0.00000E+00 0.00000E+00 0.00000E+00
 -1         8 0.00000E+00 0.00000E+00 0.00000E+00
 -1        21 0.00000E+00 0.00000E+00 0.00000E+00
 -1        22 0.00000E+00 0.00000E+00 0.00000E+00
 -1        23 0.00000E+00 0.00000E+00 0.00000E+00
 -1        24 0.00000E+00 0.00000E+00 0.00000E+00
 -1        25 0.00000E+00 0.00000E+00 0.00000E+00
 -1        26 0.00000E+00 0.00000E+00 0.00000E+00
 -1        27 0.00000E+00 0.00000E+00 0.00000E+00
 -1        28 0.00000E+00 0.00000E+00 0.00000E+00
 -1        29 0.00000E+00 0.00000E+00 0.00000E+00
 -1        30 0.00000E+00 0.00000E+00 0.00000E+00
 -1        31 0.00000E+00 0.00000E+00 0.00000E+00
 -1        32 0.00000E+00 0.00000E+00 0.00000E+00
 -1        44 7.10429E-05-7.48258E-04 1.07723E-04
 -1        45 1.59422E-05-5.80825E-04 1.75261E-04
 -1        46-1.91275E-05-4.24208E-04 2.00644E-04
 -1        47 2.50644E-05-1.71631E-04 1.31906E-04
 -1        48-2.50632E-05-1.71638E-04 1.31912E-04
 -1        49 1.91330E-05-4.24216E-04 2.00660E-04
 -1        50-1.59401E-05-5.80854E-04 1.75269E-04
 -1        51-7.09823E-05-7.48266E-04 1.07701E-04
 -1        74-7.06978E-05-7.47621E-04-1.07764E-04
 -1        75-1.60307E-05-5.80676E-04-1.75304E-04
 -1        76 1.91558E-05-4.24310E-04-2.00713E-04
 -1        77-2.50770E-05-1.71721E-04-1.31922E-04
 -1        89 7.06744E-05-7.47657E-04-1.07760E-04
 -1        90 1.60217E-05-5.80688E-04-1.75288E-04
 -1        91-1.91878E-05-4.24316E-04-2.00713E-04
 -1        92 2.50667E-05-1.71729E-04-1.31929E-04
 -1        98 0.00000E+00 0.00000E+00 0.00000E+00
 -1        99 0.00000E+00 0.00000E+00 0.00000E+00
 -1       100 0.00000E+00 0.00000E+00 0.00000E+00
 -1       101 0.00000E+00 0.00000E+00 0.00000E+00
 -1       102 0.00000E+00 0.00000E+00 0.00000E+00
 -1       124-3.22566E-06-6.85737E-04 1.01349E-04
 -1       125 1.67417E-08-8.21904E-04 1.06554E-04
 -1       126 3.28310E-06-6.85704E-04 1.01311E-04
 -1       127 8.77940E-09-6.04696E-04 1.93392E-04
 -1       128 1.70663E-06-4.45931E-04 2.15482E-04
 -1       129 2.79679E-09-4.13137E-04 2.19623E-04
 -1       130-1.70367E-06-4.45934E-04 2.15481E-04
 -1       131 1.08020E-09-1.74206E-04 1.28129E-04
 -1       153-5.90381E-05-8.92534E-04 4.77445E-05
 -1       154 2.28799E-07-7.89949E-04-6.28992E-08
 -1       155 5.88443E-05-8.92100E-04-4.78099E-05
 -1       156 1.85183E-07-6.53834E-04-4.02660E-08
 -1       157 1.19384E-05-3.68126E-04 8.63524E-05
 -1       158-1.24730E-07-3.76115E-04 9.11013E-09
 -1       159-1.18926E-05-3.68210E-04-8.63737E-05
 -1       160-4.96875E-08-1.42876E-04-6.17113E-09
 -1       182-3.18495E-06-6.86159E-04-1.01421E-04
 -1       183 1.25660E-08-8.21279E-04-1.06627E-04
 -1       184 3.18951E-06-6.86158E-04-1.01465E-04
 -1       185-2.38536E-08-6.04394E-04-1.93491E-04
 -1       186 1.73883E-06-4.45866E-04-2.15479E-04
 -1       187-6.55701E-10-4.13420E-04-2.19609E-04
 -1       188-1.75606E-06-4.45874E-04-2.15471E-04
 -1       189-5.60068E-09-1.74315E-04-1.28142E-04
 -1       211-5.88786E-05-8.92125E-04-4.78324E-05
 -1       212-1.70739E-07-7.90015E-04-5.90905E-08
 -1       213 5.90638E-05-8.92595E-04 4.77470E-05
 -1       214-1.92827E-07-6.53848E-04-4.03018E-08
 -1       215 1.18836E-05-3.68226E-04-8.63677E-05
 -1       216 1.13960E-07-3.76129E-04 1.19460E-08
 -1       217-1.19329E-05-3.68132E-04 8.63580E-05
 -1       218 3.91319E-08-1.42880E-04 2.22081E-09
 -1       250-9.31586E-09-8.87909E-04 4.74043E-05
 -1       251-1.32886E-07-5.59365E-04-3.53073E-08
 -1       252-4.02290E-08-7.15468E-04-1.33122E-07
 -1       253 1.00318E-07-5.59345E-04-6.79917E-08
 -1       254-1.37532E-08-8.87927E-04-4.74438E-05
 -1       255 3.53419E-11-6.39795E-04-1.74967E-08
 -1       256-5.96848E-09-3.63105E-04 9.63333E-05
 -1       257 5.44531E-08-4.24915E-04-2.14163E-08
 -1       258-1.31893E-08-3.76382E-04-5.37713E-09
 -1       259-6.84453E-08-4.24905E-04-1.45107E-08
 -1       260-7.42188E-09-3.63177E-04-9.63678E-05
 -1       261 8.21376E-10-1.61719E-04 1.23862E-08
 -3
    1PSTEP                         6           6           1          
  100CL  106 3.00000E-02          81                     1    6           1
 -4  DISP        4    1
 -5  D1          1    2    1    0
 -5  D2          1    2    2    0
 -5  D3          1    2    3    0
 -5  ALL         1    2    0    0    1ALL
 -1         5 0.00000E+00 0.00000E+00 0.00000E+00
 -1         6 0.00000E+00 0.00000E+00 0.00000E+00
 -1         7 0.00000E+00 0.00000E+00 0.00000E+00
 -1         8 0.00000E+00 0.00000E+00 0.00000E+00
 -1        21 0.00000E+00 0.00000E+00 0.00000E+00
 -1        22 0.00000E+00 0.00000E+00 0.00000E+00
 -1        23 0.00000E+00 0.00000E+00 0.00000E+00
 -1        24 0.00000E+00 0.00000E+00 0.00000E+00
 -1        25 0.00000E+00 0.00000E+00 0.00000E+00
 -1        26 0.00000E+00 0.00000E+00 0.00000E+00
 -1        27 0.00000E+00 0.00000E+00 0.00000E+00
 -1        28 0.00000E+00 0.00000E+00 0.00000E+00
 -1        29 0.00000E+00 0.00000E+00 0.00000E+00
 -1        30 0.00000E+00 0.00000E+00 0.00000E+00
 -1        31 0.00000E+00 0.00000E+00 0.00000E+00
 -1        32 0.00000E+00 0.00000E+00 0.00000E+00
 -1        44-5.34961E-05 5.41853E-04-7.77277E-05
 -1        45-1.22650E-05 4.21177E-04-1.27101E-04
 -1        46 1.42826E-05 3.08243E-04-1.45696E-04
 -1        47-1.79780E-05 1.24725E-04-9.58176E-05