    1C
    1UUSER                                                              
    1UDATE              16.july.2018                                    
    1UTIME              13:00:07                                        
    1UHOST                                                              
    1UPGM               CalculiX                                        
    1UVERSION           Version 2.13                             
    1UCOMPILETIME       jue jun 14 00:40:39 CEST 2018                    
    1UDIR                                                               
    1UDBN                                                               
    1UMAT    1EL                                                        
    2C                           201                                     1
 -1         1 0.00000E+00 0.00000E+00 0.00000E+00
 -1         2 1.00000E+00 0.00000E+00 0.00000E+00
 -1         3 1.00000E+00 1.00000E+00 0.00000E+00
 -1         4 0.00000E+00 1.00000E+00 0.00000E+00
 -1         9 2.50000E-01 0.00000E+00 0.00000E+00
 -1        10 5.00000E-01 0.00000E+00 0.00000E+00
 -1        11 7.50000E-01 0.00000E+00 0.00000E+00
 -1        12 1.00000E+00 2.50000E-01 0.00000E+00
 -1        13 1.00000E+00 5.00000E-01 0.00000E+00
 -1        14 1.00000E+00 7.50000E-01 0.00000E+00
 -1        15 7.50000E-01 1.00000E+00 0.00000E+00
 -1        16 5.00000E-01 1.00000E+00 0.00000E+00
 -1        17 2.50000E-01 1.00000E+00 0.00000E+00
 -1        18 0.00000E+00 7.50000E-01 0.00000E+00
 -1        19 0.00000E+00 5.00000E-01 0.00000E+00
 -1        20 0.00000E+00 2.50000E-01 0.00000E+00
 -1        33 1.00000E+00 0.00000E+00 5.00000E-01
 -1        34 1.00000E+00 0.00000E+00 1.00000E+00
 -1        35 1.00000E+00 0.00000E+00 1.50000E+00
 -1        36 1.00000E+00 0.00000E+00 2.00000E+00
 -1        37 1.00000E+00 0.00000E+00 2.50000E+00
 -1        38 1.00000E+00 0.00000E+00 3.00000E+00
 -1        39 1.00000E+00 0.00000E+00 3.50000E+00
 -1        40 1.00000E+00 0.00000E+00 4.00000E+00
 -1        41 1.00000E+00 0.00000E+00 4.50000E+00
 -1        42 1.00000E+00 0.00000E+00 5.00000E+00
 -1        43 1.00000E+00 0.00000E+00 5.50000E+00
 -1        44 1.00000E+00 0.00000E+00 6.00000E+00
 -1        51 0.00000E+00 0.00000E+00 6.00000E+00
 -1        52 0.00000E+00 0.00000E+00 5.50000E+00
 -1        53 0.00000E+00 0.00000E+00 5.00000E+00
 -1        54 0.00000E+00 0.00000E+00 4.50000E+00
 -1        55 0.00000E+00 0.00000E+00 4.00000E+00
 -1        56 0.00000E+00 0.00000E+00 3.50000E+00
 -1        57 0.00000E+00 0.00000E+00 3.00000E+00
 -1        58 0.00000E+00 0.00000E+00 2.50000E+00
 -1        59 0.00000E+00 0.00000E+00 2.00000E+00
 -1        60 0.00000E+00 0.00000E+00 1.50000E+00
 -1        61 0.00000E+00 0.00000E+00 1.00000E+00
 -1        62 0.00000E+00 0.00000E+00 5.00000E-01
 -1        63 1.00000E+00 1.00000E+00 5.00000E-01
 -1        64 1.00000E+00 1.00000E+00 1.00000E+00
 -1        65 1.00000E+00 1.00000E+00 1.50000E+00
 -1        66 1.00000E+00 1.00000E+00 2.00000E+00
 -1        67 1.00000E+00 1.00000E+00 2.50000E+00
 -1        68 1.00000E+00 1.00000E+00 3.00000E+00
 -1        69 1.00000E+00 1.00000E+00 3.50000E+00
 -1        70 1.00000E+00 1.00000E+00 4.00000E+00
 -1        71 1.00000E+00 1.00000E+00 4.50000E+00
 -1        72 1.00000E+00 1.00000E+00 5.00000E+00
 -1        73 1.00000E+00 1.00000E+00 5.50000E+00
 -1        74 1.00000E+00 1.00000E+00 6.00000E+00
 -1        78 0.00000E+00 1.00000E+00 5.00000E-01
 -1        79 0.00000E+00 1.00000E+00 1.00000E+00
 -1        80 0.00000E+00 1.00000E+00 1.50000E+00
 -1        81 0.00000E+00 1.00000E+00 2.00000E+00
 -1        82 0.00000E+00 1.00000E+00 2.50000E+00
 -1        83 0.00000E+00 1.00000E+00 3.00000E+00
 -1        84 0.00000E+00 1.00000E+00 3.50000E+00
 -1        85 0.00000E+00 1.00000E+00 4.00000E+00
 -1        86 0.00000E+00 1.00000E+00 4.50000E+00
 -1        87 0.00000E+00 1.00000E+00 5.00000E+00
 -1        88 0.00000E+00 1.00000E+00 5.50000E+00
 -1        89 0.00000E+00 1.00000E+00 6.00000E+00
 -1        93 5.00000E-01 2.50000E-01 0.00000E+00
 -1        94 2.50000E-01 5.00000E-01 0.00000E+00
 -1        95 5.00000E-01 5.00000E-01 0.00000E+00
 -1        96 7.50000E-01 5.00000E-01 0.00000E+00
 -1        97 5.00000E-01 7.50000E-01 0.00000E+00
 -1       103 5.00000E-01 0.00000E+00 5.00000E-01
 -1       104 2.50000E-01 0.00000E+00 1.00000E+00
 -1       105 5.00000E-01 0.00000E+00 1.00000E+00
 -1       106 7.50000E-01 0.00000E+00 1.00000E+00
 -1       107 5.00000E-01 0.00000E+00 1.50000E+00
 -1       108 2.50000E-01 0.00000E+00 2.00000E+00
 -1       109 5.00000E-01 0.00000E+00 2.00000E+00
 -1       110 7.50000E-01 0.00000E+00 2.00000E+00
 -1       111 5.00000E-01 0.00000E+00 2.50000E+00
 -1       112 2.50000E-01 0.00000E+00 3.00000E+00
 -1       113 5.00000E-01 0.00000E+00 3.00000E+00
 -1       114 7.50000E-01 0.00000E+00 3.00000E+00
 -1       115 5.00000E-01 0.00000E+00 3.50000E+00
 -1       116 2.50000E-01 0.00000E+00 4.00000E+00
 -1       117 5.00000E-01 0.00000E+00 4.00000E+00
 -1       118 7.50000E-01 0.00000E+00 4.00000E+00
 -1       119 5.00000E-01 0.00000E+00 4.50000E+00
 -1       120 2.50000E-01 0.00000E+00 5.00000E+00
 -1       121 5.00000E-01 0.00000E+00 5.00000E+00
 -1       122 7.50000E-01 0.00000E+00 5.00000E+00
 -1       123 5.00000E-01 0.00000E+00 5.50000E+00
 -1       124 2.50000E-01 0.00000E+00 6.00000E+00
 -1       125 5.00000E-01 0.00000E+00 6.00000E+00
 -1       126 7.50000E-01 0.00000E+00 6.00000E+00
 -1       132 1.00000E+00 5.00000E-01 5.00000E-01
 -1       133 1.00000E+00 2.50000E-01 1.00000E+00
 -1       134 1.00000E+00 5.00000E-01 1.00000E+00
 -1       135 1.00000E+00 7.50000E-01 1.00000E+00
 -1       136 1.00000E+00 5.00000E-01 1.50000E+00
 -1       137 1.00000E+00 2.50000E-01 2.00000E+00
 -1       138 1.00000E+00 5.00000E-01 2.00000E+00
 -1       139 1.00000E+00 7.50000E-01 2.00000E+00
 -1       140 1.00000E+00 5.00000E-01 2.50000E+00
 -1       141 1.00000E+00 2.50000E-01 3.00000E+00
 -1       142 1.00000E+00 5.00000E-01 3.00000E+00
 -1       143 1.00000E+00 7.50000E-01 3.00000E+00
 -1       144 1.00000E+00 5.00000E-01 3.50000E+00
 -1       145 1.00000E+00 2.50000E-01 4.00000E+00
 -1       146 1.00000E+00 5.00000E-01 4.00000E+00
 -1       147 1.00000E+00 7.50000E-01 4.00000E+00
 -1       148 1.00000E+00 5.00000E-01 4.50000E+00
 -1       149 1.00000E+00 2.50000E-01 5.00000E+00
 -1       150 1.00000E+00 5.00000E-01 5.00000E+00
 -1       151 1.00000E+00 7.50000E-01 5.00000E+00
 -1       152 1.00000E+00 5.00000E-01 5.50000E+00
 -1       153 1.00000E+00 2.50000E-01 6.00000E+00
 -1       154 1.00000E+00 5.00000E-01 6.00000E+00
 -1       155 1.00000E+00 7.50000E-01 6.00000E+00
 -1       161 5.00000E-01 1.00000E+00 5.00000E-01
 -1       162 7.50000E-01 1.00000E+00 1.00000E+00
 -1       163 5.00000E-01 1.00000E+00 1.00000E+00
 -1       164 2.50000E-01 1.00000E+00 1.00000E+00
 -1       165 5.00000E-01 1.00000E+00 1.50000E+00
 -1       166 7.50000E-01 1.00000E+00 2.00000E+00
 -1       167 5.00000E-01 1.00000E+00 2.00000E+00
 -1       168 2.50000E-01 1.00000E+00 2.00000E+00
 -1       169 5.00000E-01 1.00000E+00 2.50000E+00
 -1       170 7.50000E-01 1.00000E+00 3.00000E+00
 -1       171 5.00000E-01 1.00000E+00 3.00000E+00
 -1       172 2.50000E-01 1.00000E+00 3.00000E+00
 -1       173 5.00000E-01 1.00000E+00 3.50000E+00
 -1       174 7.50000E-01 1.00000E+00 4.00000E+00
 -1       175 5.00000E-01 1.00000E+00 4.00000E+00
 -1       176 2.50000E-01 1.00000E+00 4.00000E+00
 -1       177 5.00000E-01 1.00000E+00 4.50000E+00
 -1       178 7.50000E-01 1.00000E+00 5.00000E+00
 -1       179 5.00000E-01 1.00000E+00 5.00000E+00
 -1       180 2.50000E-01 1.00000E+00 5.00000E+00
 -1       181 5.00000E-01 1.00000E+00 5.50000E+00
 -1       182 7.50000E-01 1.00000E+00 6.00000E+00
 -1       183 5.00000E-01 1.00000E+00 6.00000E+00
 -1       184 2.50000E-01 1.00000E+00 6.00000E+00
 -1       190 0.00000E+00 5.00000E-01 5.00000E-01
 -1       191 0.00000E+00 7.50000E-01 1.00000E+00
 -1       192 0.00000E+00 5.00000E-01 1.00000E+00
 -1       193 0.00000E+00 2.50000E-01 1.00000E+00
 -1       194 0.00000E+00 5.00000E-01 1.50000E+00
 -1       195 0.00000E+00 7.50000E-01 2.00000E+00
 -1       196 0.00000E+00 5.00000E-01 2.00000E+00
 -1       197 0.00000E+00 2.50000E-01 2.00000E+00
 -1       198 0.00000E+00 5.00000E-01 2.50000E+00
 -1       199 0.00000E+00 7.50000E-01 3.00000E+00
 -1       200 0.00000E+00 5.00000E-01 3.00000E+00
 -1       201 0.00000E+00 2.50000E-01 3.00000E+00
 -1       202 0.00000E+00 5.00000E-01 3.50000E+00
 -1       203 0.00000E+00 7.50000E-01 4.00000E+00
 -1       204 0.00000E+00 5.00000E-01 4.00000E+00
 -1       205 0.00000E+00 2.50000E-01 4.00000E+00
 -1       206 0.00000E+00 5.00000E-01 4.50000E+00
 -1       207 0.00000E+00 7.50000E-01 5.00000E+00
 -1       208 0.00000E+00 5.00000E-01 5.00000E+00
 -1       209 0.00000E+00 2.50000E-01 5.00000E+00
 -1       210 0.00000E+00 5.00000E-01 5.50000E+00
 -1       211 0.00000E+00 7.50000E-01 6.00000E+00
 -1       212 0.00000E+00 5.00000E-01 6.00000E+00
 -1       213 0.00000E+00 2.50000E-01 6.00000E+00
 -1       219 5.00000E-01 5.00000E-01 5.00000E-01
 -1       220 5.00000E-01 2.50000E-01 1.00000E+00
 -1       221 2.50000E-01 5.00000E-01 1.00000E+00
 -1       222 5.00000E-01 5.00000E-01 1.00000E+00
 -1       223 7.50000E-01 5.00000E-01 1.00000E+00
 -1       224 5.00000E-01 7.50000E-01 1.00000E+00
 -1       225 5.00000E-01 5.00000E-01 1.50000E+00
 -1       226 5.00000E-01 2.50000E-01 2.00000E+00
 -1       227 2.50000E-01 5.00000E-01 2.00000E+00
 -1       228 5.00000E-01 5.00000E-01 2.00000E+00
 -1       229 7.50000E-01 5.00000E-01 2.00000E+00
 -1       230 5.00000E-01 7.50000E-01 2.00000E+00
 -1       231 5.00000E-01 5.00000E-01 2.50000E+00
 -1       232 5.00000E-01 2.50000E-01 3.00000E+00
 -1       233 2.50000E-01 5.00000E-01 3.00000E+00
 -1       234 5.00000E-01 5.00000E-01 3.00000E+00
 -1       235 7.50000E-01 5.00000E-01 3.00000E+00
 -1       236 5.00000E-01 7.50000E-01 3.00000E+00
 -1       237 5.00000E-01 5.00000E-01 3.50000E+00
 -1       238 5.00000E-01 2.50000E-01 4.00000E+00
 -1       239 2.50000E-01 5.00000E-01 4.00000E+00
 -1       240 5.00000E-01 5.00000E-01 4.00000E+00
 -1       241 7.50000E-01 5.00000E-01 4.00000E+00
 -1       242 5.00000E-01 7.50000E-01 4.00000E+00
 -1       243 5.00000E-01 5.00000E-01 4.50000E+00
 -1       244 5.00000E-01 2.50000E-01 5.00000E+00
 -1       245 2.50000E-01 5.00000E-01 5.00000E+00
 -1       246 5.00000E-01 5.00000E-01 5.00000E+00
 -1       247 7.50000E-01 5.00000E-01 5.00000E+00
 -1       248 5.00000E-01 7.50000E-01 5.00000E+00
 -1       249 5.00000E-01 5.00000E-01 5.50000E+00
 -1       250 5.00000E-01 2.50000E-01 6.00000E+00
 -1       251 2.50000E-01 5.00000E-01 6.00000E+00
 -1       252 5.00000E-01 5.00000E-01 6.00000E+00
 -1       253 7.50000E-01 5.00000E-01 6.00000E+00
 -1       254 5.00000E-01 7.50000E-01 6.00000E+00
 -3
    3C                            24                                     1
 -1         1    4    0    1
 -2         1        10        95        19        61       105       222       192         9        93
 -2        94        20        62       103       219       190       104       220       221       193
 -1         2    4    0    1
 -2        10         2        13        95       105        34       134       222        11        12
 -2        96        93       103        33       132       219       106       133       223       220
 -1         3    4    0    1
 -2        19        95        16         4       192       222       163        79        94        97
 -2        17        18       190       219       161        78       221       224       164       191
 -1         4    4    0    1
 -2        95        13         3        16       222       134        64       163        96        14
 -2        15        97       219       132        63       161       223       135       162       224
 -1         5    4    0    1
 -2        61       105       222       192        59       109       228       196       104       220
 -2       221       193        60       107       225       194       108       226       227       197
 -1         6    4    0    1
 -2       105        34       134       222       109        36       138       228       106       133
 -2       223       220       107        35       136       225       110       137       229       226
 -1         7    4    0    1
 -2       192       222       163        79       196       228       167        81       221       224
 -2       164       191       194       225       165        80       227       230       168       195
 -1         8    4    0    1
 -2       222       134        64       163       228       138        66       167       223       135
 -2       162       224       225       136        65       165       229       139       166       230
 -1         9    4    0    1
 -2        59       109       228       196        57       113       234       200       108       226
 -2       227       197        58       111       231       198       112       232       233       201
 -1        10    4    0    1
 -2       109        36       138       228       113        38       142       234       110       137
 -2       229       226       111        37       140       231       114       141       235       232
 -1        11    4    0    1
 -2       196       228       167        81       200       234       171        83       227       230
 -2       168       195       198       231       169        82       233       236       172       199
 -1        12    4    0    1
 -2       228       138        66       167       234       142        68       171       229       139
 -2       166       230       231       140        67       169       235       143       170       236
 -1        13    4    0    1
 -2        57       113       234       200        55       117       240       204       112       232
 -2       233       201        56       115       237       202       116       238       239       205
 -1        14    4    0    1
 -2       113        38       142       234       117        40       146       240       114       141
 -2       235       232       115        39       144       237       118       145       241       238
 -1        15    4    0    1
 -2       200       234       171        83       204       240       175        85       233       236
 -2       172       199       202       237       173        84       239       242       176       203
 -1        16    4    0    1
 -2       234       142        68       171       240       146        70       175       235       143
 -2       170       236       237       144        69       173       241       147       174       242
 -1        17    4    0    1
 -2        55       117       240       204        53       121       246       208       116       238
 -2       239       205        54       119       243       206       120       244       245       209
 -1        18    4    0    1
 -2       117        40       146       240       121        42       150       246       118       145
 -2       241       238       119        41       148       243       122       149       247       244
 -1        19    4    0    1
 -2       204       240       175        85       208       246       179        87       239       242
 -2       176       203       206       243       177        86       245       248       180       207
 -1        20    4    0    1
 -2       240       146        70       175       246       150        72       179       241       147
 -2       174       242       243       148        71       177       247       151       178       248
 -1        21    4    0    1
 -2        53       121       246       208        51       125       252       212       120       244
 -2       245       209        52       123       249       210       124       250       251       213
 -1        22    4    0    1
 -2       121        42       150       246       125        44       154       252       122       149
 -2       247       244       123        43       152       249       126       153       253       250
 -1        23    4    0    1
 -2       208       246       179        87       212       252       183        89       245       248
 -2       180       207       210       249       181        88       251       254       184       211
 -1        24    4    0    1
 -2       246       150        72       179       252       154        74       183       247       151
 -2       178       248       249       152        73       181       253       155       182       254
 -3
    1PSTEP                         1           1           1          
  100CL  101 5.00000E-03         201                     1    1           1
 -4  DISP        4    1
 -5  D1          1    2    1    0
 -5  D2          1    2    2    0
 -5  D3          1    2    3    0
 -5  ALL         1    2    0    0    1ALL
 -1         1 0.00000E+00 0.00000E+00 0.00000E+00
 -1         2 0.00000E+00 0.00000E+00 0.00000E+00
 -1         3 0.00000E+00 0.00000E+00 0.00000E+00
 -1         4 0.00000E+00 0.00000E+00 0.00000E+00
 -1         9 0.00000E+00 0.00000E+00 0.00000E+00
 -1        10 0.00000E+00 0.00000E+00 0.00000E+00
 -1        11 0.00000E+00 0.00000E+00 0.00000E+00
 -1        12 0.00000E+00 0.00000E+00 0.00000E+00
 -1        13 0.00000E+00 0.00000E+00 0.00000E+00
 -1        14 0.00000E+00 0.00000E+00 0.00000E+00
 -1        15 0.00000E+00 0.00000E+00 0.00000E+00
 -1        16 0.00000E+00 0.00000E+00 0.00000E+00
 -1        17 0.00000E+00 0.00000E+00 0.00000E+00
 -1        18 0.00000E+00 0.00000E+00 0.00000E+00
 -1        19 0.00000E+00 0.00000E+00 0.00000E+00
 -1        20 0.00000E+00 0.00000E+00 0.00000E+00
 -1        33 5.93467E-05-1.41529E-04-1.88990E-04
 -1        34 3.00622E-05-4.40516E-04-3.47950E-04
 -1        35 2.47207E-05-8.93154E-04-4.52983E-04
 -1        36 8.95052E-06-1.41251E-03-5.10632E-04
 -1        37-1.93458E-07-1.95693E-03-5.24682E-04
 -1        38-1.29503E-05-2.51032E-03-5.07458E-04
 -1        39-4.67164E-05-3.01716E-03-3.88376E-04
 -1        40-5.05473E-05-3.37594E-03-2.22097E-04
 -1        41-3.92585E-06-3.36461E-03-1.02290E-04
 -1        42 2.77486E-05-3.51716E-03-2.09521E-04
 -1        43-8.89811E-05-3.59021E-03-1.27653E-06
 -1        44-2.90845E-04-3.88792E-03 4.03833E-04
 -1        51 2.68829E-04-3.86722E-03 4.03707E-04
 -1        52 8.36553E-05-3.58466E-03-3.75853E-06
 -1        53-2.32135E-05-3.52018E-03-2.09721E-04
 -1        54 6.70478E-06-3.36574E-03-1.01789E-04
 -1        55 5.03287E-05-3.37449E-03-2.21585E-04
 -1        56 4.71816E-05-3.01660E-03-3.88344E-04
 -1        57 1.37311E-05-2.51010E-03-5.07218E-04
 -1        58 7.22702E-07-1.95675E-03-5.24470E-04
 -1        59-8.71156E-06-1.41218E-03-5.10433E-04
 -1        60-2.45674E-05-8.92988E-04-4.52846E-04
 -1        61-2.99779E-05-4.40391E-04-3.47830E-04
 -1        62-5.93269E-05-1.41470E-04-1.88918E-04
 -1        63-5.73527E-05-1.39494E-04 1.83953E-04
 -1        64-2.89963E-05-4.39880E-04 3.37444E-04
 -1        65-2.25794E-05-8.91097E-04 4.37971E-04
 -1        66-9.30096E-06-1.41664E-03 4.90692E-04
 -1        67 4.84941E-06-1.95059E-03 4.99860E-04
 -1        68 1.53324E-05-2.51842E-03 4.72976E-04
 -1        69 4.77186E-05-3.00921E-03 3.52026E-04
 -1        70 4.37485E-05-3.43155E-03 1.87453E-04
 -1        71 2.22352E-05-3.31647E-03 5.90796E-05
 -1        72-4.08567E-05-3.41707E-03 1.23573E-04
 -1        73 8.84288E-05-3.72491E-03-8.82319E-05
 -1        74 8.70286E-05-4.32363E-03-4.53949E-04
 -1        78 5.74601E-05-1.39475E-04 1.84027E-04
 -1        79 2.92924E-05-4.39798E-04 3.37555E-04
 -1        80 2.30141E-05-8.90967E-04 4.38107E-04
 -1        81 1.00662E-05-1.41644E-03 4.90893E-04
 -1        82-4.00066E-06-1.95041E-03 5.00110E-04
 -1        83-1.39879E-05-2.51796E-03 4.73144E-04
 -1        84-4.64262E-05-3.00900E-03 3.52007E-04
 -1        85-4.17233E-05-3.43061E-03 1.88073E-04
 -1        86-2.08305E-05-3.31692E-03 5.96082E-05
 -1        87 4.33675E-05-3.41474E-03 1.22385E-04
 -1        88-8.73109E-05-3.72485E-03-9.14525E-05
 -1        89-8.42893E-05-4.31784E-03-4.53588E-04
 -1        93 0.00000E+00 0.00000E+00 0.00000E+00
 -1        94 0.00000E+00 0.00000E+00 0.00000E+00
 -1        95 0.00000E+00 0.00000E+00 0.00000E+00
 -1        96 0.00000E+00 0.00000E+00 0.00000E+00
 -1        97 0.00000E+00 0.00000E+00 0.00000E+00
 -1       103-1.65192E-09-1.65671E-04-1.85119E-04
 -1       104-1.48739E-05-4.59594E-04-3.53363E-04
 -1       105 2.97549E-08-4.62011E-04-3.55610E-04
 -1       106 1.49411E-05-4.59669E-04-3.53423E-04
 -1       107 1.03126E-07-9.01709E-04-4.55302E-04
 -1       108-3.79033E-06-1.41399E-03-5.13892E-04
 -1       109 1.85158E-07-1.42784E-03-5.14499E-04
 -1       110 4.10927E-06-1.41408E-03-5.13987E-04
 -1       111 1.83830E-07-1.94933E-03-5.27372E-04
 -1       112 4.92458E-06-2.54695E-03-5.10497E-04
 -1       113 1.61722E-07-2.53619E-03-5.09120E-04
 -1       114-4.42607E-06-2.54731E-03-5.10583E-04
 -1       115 6.09788E-07-2.97002E-03-3.93528E-04
 -1       116 3.39968E-05-3.32553E-03-2.16767E-04
 -1       117 8.01930E-07-3.48489E-03-2.07993E-04
 -1       118-3.30753E-05-3.32511E-03-2.16989E-04
 -1       119-1.52721E-07-3.35582E-03-1.00816E-04
 -1       120-4.23804E-05-3.83632E-03-1.82932E-04
 -1       121-1.83517E-06-3.58426E-03-1.79970E-04
 -1       122 4.18821E-05-3.83971E-03-1.82818E-04
 -1       123 3.63056E-06-3.48613E-03-4.56592E-05
 -1       124 2.44986E-04-2.78848E-03 3.73952E-04
 -1       125 5.73848E-06-3.81667E-03 4.08933E-04
 -1       126-2.46342E-04-2.77871E-03 3.73933E-04
 -1       132 9.87626E-07-1.07261E-04-2.45847E-06
 -1       133 1.55636E-05-4.28869E-04-1.66608E-04
 -1       134 1.16336E-06-4.33280E-04-4.70261E-06
 -1       135-1.43445E-05-4.28851E-04 1.56747E-04
 -1       136 3.80083E-07-8.74961E-04-7.81718E-06
 -1       137 5.88206E-06-1.40965E-03-2.56649E-04
 -1       138 8.36444E-07-1.40063E-03-9.81738E-06
 -1       139-3.40218E-06-1.41045E-03 2.36459E-04
 -1       140 1.92159E-06-1.97258E-03-1.37559E-05
 -1       141-8.25055E-06-2.49817E-03-2.40423E-04
 -1       142 6.25174E-06-2.51030E-03-1.25437E-05
 -1       143 8.34499E-06-2.50693E-03 2.11678E-04
 -1       144-6.56171E-06-3.02228E-03-1.86311E-05
 -1       145-1.42419E-05-3.38808E-03-1.47832E-04
 -1       146-1.45400E-05-3.27558E-03-2.65726E-05
 -1       147 2.17261E-05-3.39770E-03 1.00443E-04
 -1       148 2.45514E-05-3.51058E-03-2.92731E-05
 -1       149-3.14902E-05-3.25221E-03-7.15354E-05
 -1       150 8.70075E-05-3.37671E-03-1.97816E-05
 -1       151-6.09093E-06-3.25818E-03 1.56345E-05
 -1       152-1.07800E-04-3.61217E-03-2.66288E-05
 -1       153 1.08723E-04-3.97071E-03 1.61283E-04
 -1       154-1.93110E-04-2.58199E-03-2.75788E-05
 -1       155 5.55658E-05-3.98389E-03-2.24795E-04
 -1       161 4.91089E-08-1.63912E-04 1.80133E-04
 -1       162-1.42362E-05-4.58451E-04 3.43478E-04
 -1       163 1.11973E-07-4.59213E-04 3.45772E-04
 -1       164 1.44921E-05-4.58410E-04 3.43524E-04
 -1       165 2.39987E-07-9.01357E-04 4.40306E-04
 -1       166-4.51699E-06-1.41140E-03 4.94128E-04
 -1       167 2.94237E-07-1.42250E-03 4.96198E-04
 -1       168 5.20039E-06-1.41131E-03 4.94228E-04
 -1       169 4.82493E-07-1.94934E-03 4.99849E-04
 -1       170 8.14689E-06-2.54335E-03 4.80730E-04
 -1       171 4.51518E-07-2.50496E-03 4.78925E-04
 -1       172-7.05791E-06-2.54307E-03 4.80780E-04
 -1       173 8.20132E-07-2.99052E-03 3.59378E-04
 -1       174 2.05247E-05-3.27281E-03 1.77951E-04
 -1       175 3.36689E-07-3.38587E-03 1.79022E-04
 -1       176-1.90314E-05-3.27251E-03 1.78212E-04
 -1       177 1.12354E-06-3.32539E-03 4.37099E-05
 -1       178-1.24757E-05-3.89469E-03 1.24869E-04
 -1       179-4.39097E-07-3.42695E-03 1.16587E-04
 -1       180 1.27251E-05-3.89286E-03 1.24362E-04
 -1       181 2.12448E-06-3.69053E-03 6.34211E-06
 -1       182-5.01882E-06-2.57974E-03-4.39303E-04
 -1       183-4.11628E-06-4.38176E-03-4.48310E-04
 -1       184 4.60406E-06-2.57956E-03-4.39809E-04
 -1       190-9.08537E-07-1.07210E-04-2.39173E-06
 -1       191 1.45652E-05-4.28783E-04 1.56878E-04
 -1       192-1.02998E-06-4.33192E-04-4.58787E-06
 -1       193-1.54611E-05-4.28752E-04-1.66500E-04
 -1       194-9.07229E-09-8.74826E-04-7.63450E-06
 -1       195 3.96389E-06-1.41024E-03 2.36629E-04
 -1       196-4.28305E-07-1.40053E-03-9.67577E-06
 -1       197-5.49271E-06-1.40947E-03-2.56495E-04
 -1       198-1.13619E-06-1.97225E-03-1.36150E-05
 -1       199-7.28296E-06-2.50676E-03 2.11839E-04
 -1       200-5.68740E-06-2.51002E-03-1.25094E-05
 -1       201 8.73871E-06-2.49778E-03-2.40279E-04
 -1       202 7.96363E-06-3.02210E-03-1.83055E-05
 -1       203-2.06623E-05-3.39682E-03 1.00452E-04
 -1       204 1.55121E-05-3.27621E-03-2.68792E-05
 -1       205 1.54962E-05-3.38818E-03-1.47751E-04
 -1       206-2.32239E-05-3.50920E-03-2.97986E-05
 -1       207 8.74319E-06-3.25902E-03 1.53179E-05
 -1       208-8.78463E-05-3.37523E-03-2.01373E-05
 -1       209 2.95339E-05-3.25101E-03-7.17047E-05
 -1       210 1.11182E-04-3.61419E-03-2.39726E-05
 -1       211-5.92333E-05-3.97718E-03-2.25282E-04
 -1       212 1.98144E-04-2.59403E-03-2.71705E-05
 -1       213-1.01609E-04-3.97364E-03 1.60898E-04
 -1       219 2.65428E-08-1.31191E-04-2.12061E-06
 -1       220 7.98262E-08-4.47572E-04-1.71964E-04
 -1       221-4.08129E-07-4.48287E-04-5.11797E-06
 -1       222 1.09957E-07-4.49233E-04-5.38410E-06
 -1       223 5.85925E-07-4.48321E-04-5.17703E-06
 -1       224 1.12295E-07-4.45975E-04 1.61804E-04
 -1       225 1.52685E-07-8.87555E-04-7.45957E-06
 -1       226 2.22517E-07-1.41703E-03-2.60284E-04
 -1       227-3.00283E-07-1.40136E-03-1.01902E-05
 -1       228 3.29933E-07-1.40211E-03-1.16753E-05
 -1       229 8.22517E-07-1.40145E-03-1.02452E-05
 -1       230 3.13690E-07-1.41501E-03 2.39112E-04
 -1       231 3.19667E-07-1.97336E-03-1.15975E-05
 -1       232 5.27767E-07-2.50936E-03-2.47541E-04
 -1       233-1.24575E-06-2.50388E-03-1.76522E-05
 -1       234 6.11897E-07-2.49762E-03-1.95403E-05
 -1       235 2.20085E-06-2.50385E-03-1.76757E-05
 -1       236 5.17514E-07-2.49062E-03 2.14823E-04
 -1       237 4.59414E-07-3.00410E-03-1.55501E-05
 -1       238 4.34618E-07-3.42523E-03-1.39376E-04
 -1       239 4.01061E-06-3.25957E-03-2.41432E-05
 -1       240 1.22038E-06-3.27446E-03-2.97293E-05
 -1       241-2.53295E-06-3.25992E-03-2.39015E-05
 -1       242 8.31076E-07-3.38549E-03 9.12340E-05
 -1       243 2.42571E-07-3.49446E-03-3.07553E-05
 -1       244 2.16857E-06-3.36805E-03-6.03224E-05
 -1       245-1.65233E-05-3.48665E-03-3.11941E-05
 -1       246 1.48068E-06-3.48253E-03-2.32173E-05
 -1       247 1.85503E-05-3.48469E-03-3.12401E-05
 -1       248 3.22571E-07-3.26604E-03 1.45671E-05
 -1       249-6.78763E-08-3.49017E-03-2.19371E-05
 -1       250-3.08082E-06-4.00566E-03 1.44796E-04
 -1       251-7.02482E-06-2.54309E-03-9.19489E-06
 -1       252 6.75944E-06-2.95017E-03-2.37243E-05
 -1       253 1.23722E-05-2.54795E-03-9.11239E-06
 -1       254 2.15841E-06-4.38947E-03-2.37756E-04
 -3
    1PSTEP                         2           2           1          
  100CL  102 1.00000E-02         201                     1    2           1
 -4  DISP        4    1
 -5  D1          1    2    1    0
 -5  D2          1    2    2    0
 -5  D3          1    2    3    0
 -5  ALL         1    2    0    0    1ALL
 -1         1 0.00000E+00 0.00000E+00 0.00000E+00
 -1         2 0.00000E+00 0.00000E+00 0.00000E+00
 -1         3 0.00000E+00 0.00000E+00 0.00000E+00
 -1         4 0.00000E+00 0.00000E+00 0.00000E+00
 -1         9 0.00000E+00 0.00000E+00 0.00000E+00
 -1        10 0.00000E+00 0.00000E+00 0.00000E+00
 -1        11 0.00000E+00 0.00000E+00 0.00000E+00
 -1        12 0.00000E+00 0.00000E+00 0.00000E+00
 -1        13 0.00000E+00 0.00000E+00 0.00000E+00
 -1        14 0.00000E+00 0.00000E+00 0.00000E+00
 -1        15 0.00000E+00 0.00000E+00 0.00000E+00
 -1        16 0.00000E+00 0.00000E+00 0.00000E+00
 -1        17 0.00000E+00 0.00000E+00 0.00000E+00
 -1        18 0.00000E+00 0.00000E+00 0.00000E+00
 -1        19 0.00000E+00 0.00000E+00 0.00000E+00
 -1        20 0.00000E+00 0.00000E+00 0.00000E+00
 -1        33-1.19803E-05 2.01454E-05 3.58363E-05
 -1        34-8.75976E-06 7.32349E-05 7.23617E-05
 -1        35-9.06983E-06 1.65815E-04 1.05222E-04
 -1        36-9.26150E-06 2.86075E-04 1.32702E-04
 -1        37-7.12249E-06 4.33766E-04 1.61349E-04
 -1        38-4.35304E-06 6.19048E-04 1.85492E-04
 -1        39 8.68849E-06 8.20126E-04 1.77526E-04
 -1        40-9.15973E-06 1.00020E-03 1.29820E-04
 -1        41-2.49885E-06 1.07523E-03 1.55243E-04
 -1        42-3.05203E-05 1.31230E-03 2.51354E-04
 -1        43 6.19971E-05 1.54879E-03 2.29387E-04
 -1        44-7.87403E-05 1.97819E-03-6.43175E-05
 -1        51 9.81197E-05 1.96007E-03-6.43239E-05
 -1        52-5.68247E-05 1.54387E-03 2.31438E-04
 -1        53 2.69359E-05 1.31509E-03 2.51291E-04
 -1        54 7.39188E-07 1.07631E-03 1.54711E-04
 -1        55 1.00641E-05 9.98933E-04 1.29387E-04
 -1        56-8.40347E-06 8.19673E-04 1.77555E-04
 -1        57 4.25844E-06 6.18900E-04 1.85365E-04
 -1        58 7.15534E-06 4.33647E-04 1.61276E-04
 -1        59 9.41710E-06 2.85818E-04 1.32653E-04
 -1        60 9.17315E-06 1.65699E-04 1.05222E-04
 -1        61 8.80189E-06 7.31478E-05 7.23517E-05
 -1        62 1.20006E-05 2.01181E-05 3.58280E-05
 -1        63 1.13175E-05 1.99029E-05-3.45161E-05
 -1        64 8.11414E-06 7.31763E-05-6.97606E-05
 -1        65 9.51888E-06 1.64437E-04-1.01317E-04
 -1        66 1.01784E-05 2.84080E-04-1.27504E-04
 -1        67 3.37513E-06 4.36733E-04-1.54656E-04
 -1        68-2.80154E-06 6.25622E-04-1.77464E-04
 -1        69 5.48229E-06 8.03711E-04-1.69167E-04
 -1        70 3.62377E-05 9.69466E-04-1.21663E-04
 -1        71-5.76837E-05 1.14028E-03-1.43986E-04
 -1        72-1.03428E-04 1.45347E-03-2.35531E-04
 -1        73 1.76235E-04 1.30006E-03-2.23197E-04
 -1        74 4.96893E-04 1.52888E-03 6.80652E-05
 -1        78-1.13594E-05 1.98775E-05-3.45270E-05