
 displacements (vx,vy,vz) for set NALL and time  0.5000000E-02

         5  0.000000E+00  0.000000E+00  0.000000E+00
         6  0.000000E+00  0.000000E+00  0.000000E+00
         7  0.000000E+00  0.000000E+00  0.000000E+00
         8  0.000000E+00  0.000000E+00  0.000000E+00
        21  0.000000E+00  0.000000E+00  0.000000E+00
        22  0.000000E+00  0.000000E+00  0.000000E+00
        23  0.000000E+00  0.000000E+00  0.000000E+00
        24  0.000000E+00  0.000000E+00  0.000000E+00
        25  0.000000E+00  0.000000E+00  0.000000E+00
        26  0.000000E+00  0.000000E+00  0.000000E+00
        27  0.000000E+00  0.000000E+00  0.000000E+00
        28  0.000000E+00  0.000000E+00  0.000000E+00
        29  0.000000E+00  0.000000E+00  0.000000E+00
        30  0.000000E+00  0.000000E+00  0.000000E+00
        31  0.000000E+00  0.000000E+00  0.000000E+00
        32  0.000000E+00  0.000000E+00  0.000000E+00
        44 -5.980311E-05 -3.465873E-03  4.486541E-04
        45  5.679315E-05 -2.562338E-03  7.858139E-04
        46 -4.770701E-05 -1.795711E-03  9.492458E-04
        47  1.309733E-04 -6.750290E-04  5.431735E-04
        48 -1.309778E-04 -6.750320E-04  5.431816E-04
        49  4.768241E-05 -1.795715E-03  9.492651E-04
        50 -5.683348E-05 -2.562340E-03  7.858487E-04
        51  5.969455E-05 -3.465881E-03  4.487142E-04
        74  3.185947E-04 -4.412631E-03 -4.946854E-04
        75  1.911285E-04 -2.972390E-03 -7.849982E-04
        76 -1.104408E-04 -1.597586E-03 -9.499360E-04
        77 -2.078703E-04 -5.267098E-04 -5.581920E-04
        89 -3.187047E-04 -4.412626E-03 -4.946264E-04
        90 -1.911683E-04 -2.972386E-03 -7.849637E-04
        91  1.104162E-04 -1.597582E-03 -9.499166E-04
        92  2.078660E-04 -5.267066E-04 -5.581839E-04
        98  0.000000E+00  0.000000E+00  0.000000E+00
        99  0.000000E+00  0.000000E+00  0.000000E+00
       100  0.000000E+00  0.000000E+00  0.000000E+00
       101  0.000000E+00  0.000000E+00  0.000000E+00
       102  0.000000E+00  0.000000E+00  0.000000E+00
       124  1.486708E-04 -2.966583E-03  4.297477E-04
       125 -3.722400E-08 -3.589117E-03  4.489017E-04
       126 -1.487600E-04 -2.966580E-03  4.297317E-04
       127 -2.583493E-08 -2.562619E-03  9.035460E-04
       128 -8.992700E-06 -1.952788E-03  9.482123E-04
       129 -6.447608E-09 -1.814580E-03  9.415561E-04
       130  8.974167E-06 -1.952786E-03  9.481995E-04
       131 -1.763777E-09 -7.364672E-04  5.564002E-04
       153  6.989370E-05 -3.636357E-03  1.912110E-04
       154 -1.203305E-04 -2.503934E-03 -2.081042E-05
       155 -6.514271E-05 -3.889274E-03 -2.380241E-04
       156 -1.203120E-04 -2.789257E-03 -6.456792E-05
       157 -2.051173E-05 -1.509175E-03  3.923689E-04
       158  8.844523E-05 -1.567217E-03 -2.945773E-05
       159  4.668514E-05 -1.475776E-03 -4.111064E-04
       160  3.982809E-05 -6.565343E-04  4.882100E-06
       182  1.140786E-04 -2.562877E-03 -4.712385E-04
       183 -3.695992E-08 -4.354798E-03 -4.765420E-04
       184 -1.141682E-04 -2.562876E-03 -4.712241E-04
       185 -2.608164E-08 -2.833275E-03 -8.737216E-04
       186 -4.399084E-05 -2.162299E-03 -9.827063E-04
       187 -6.101506E-09 -1.831823E-03 -9.637878E-04
       188  4.397263E-05 -2.162297E-03 -9.826932E-04
       189 -1.712821E-09 -7.199612E-04 -5.645483E-04
       211  6.503236E-05 -3.889271E-03 -2.379689E-04
       212  1.202241E-04 -2.503934E-03 -2.075809E-05
       213 -7.000294E-05 -3.636361E-03  1.912652E-04
       214  1.202679E-04 -2.789257E-03 -6.453400E-05
       215 -4.670996E-05 -1.475774E-03 -4.110865E-04
       216 -8.846974E-05 -1.567217E-03 -2.943770E-05
       217  2.048686E-05 -1.509177E-03  3.923891E-04
       218 -3.983416E-05 -6.565343E-04  4.890097E-06
       250 -3.847407E-08 -4.081746E-03  1.747422E-04
       251  3.029924E-05 -2.572453E-03 -1.033308E-05
       252 -3.977023E-08 -3.123336E-03 -1.555529E-05
       253 -3.039039E-05 -2.572453E-03 -1.034788E-05
       254 -3.828031E-08 -4.412658E-03 -2.541903E-04
       255 -2.602460E-08 -2.599589E-03 -3.200919E-05
       256 -7.385278E-09 -1.607331E-03  3.956629E-04
       257 -4.115399E-05 -1.749394E-03 -1.200159E-05
       258 -7.808161E-09 -1.790201E-03 -1.456179E-05
       259  4.113424E-05 -1.749394E-03 -1.201400E-05
       260 -7.228814E-09 -1.622478E-03 -4.182835E-04
       261 -2.411001E-09 -7.170385E-04 -1.981059E-06

 forces (fx,fy,fz) for set NALL and time  0.5000000E-02

         5  2.293754E+00 -4.176170E+00 -1.105109E+00
         6 -2.293668E+00 -4.176215E+00 -1.105046E+00
         7  3.460038E+00  1.085838E+00  1.268358E+00
         8 -3.459952E+00  1.085794E+00  1.268297E+00
        21 -2.776331E+00  5.574623E+00 -1.789631E+01
        22 -7.676324E-07 -9.881925E+00 -6.636587E-01
        23  2.776236E+00  5.574534E+00 -1.789623E+01
        24 -4.631017E+00  1.710780E+01 -1.021770E+01
        25  8.578316E-01 -1.150961E+01 -4.616878E-01
        26  2.144200E+00  1.341725E+01  1.050546E+01
        27 -1.813506E+00 -4.450939E-01  1.759952E+01
        28 -4.525112E-06 -1.599685E+00  1.779396E+00
        29  1.813413E+00 -4.451764E-01  1.759945E+01
        30 -2.144026E+00  1.341726E+01  1.050520E+01
        31 -8.576925E-01 -1.150962E+01 -4.617881E-01
        32  4.631188E+00  1.710779E+01 -1.021795E+01
        44  1.912357E+00  5.186074E+01  1.434703E+00
        45 -4.583189E-08 -6.080790E-01  1.525474E-01
        46  2.059868E-07  1.541504E+00 -4.634060E-01
        47 -2.538342E-07 -1.167019E+00  5.403017E-01
        48 -2.138132E-07 -1.167019E+00  5.403017E-01
        49  1.026611E-07  1.541503E+00 -4.634061E-01
        50  7.863214E-08 -6.080791E-01  1.525475E-01
        51 -1.912534E+00  5.186067E+01  1.434940E+00
        74 -7.380027E+00  1.756052E+01 -9.831649E-01
        75 -3.779754E-08 -6.080799E-01 -1.525472E-01
        76 -1.277703E-07  1.541504E+00  4.634060E-01
        77  2.630992E-07 -1.167019E+00 -5.403017E-01
        89  7.379854E+00  1.756057E+01 -9.829364E-01
        90 -7.892041E-08 -6.080799E-01 -1.525471E-01
        91 -9.020900E-08  1.541504E+00  4.634058E-01
        92  1.886550E-07 -1.167019E+00 -5.403015E-01
        98 -1.195034E-04  3.796947E+01 -1.717514E+01
        99 -2.285439E-01 -7.604779E+00  6.541622E-01
       100  2.333743E-05 -2.289492E+01 -3.848493E-01
       101  2.283750E-01 -7.604774E+00  6.542821E-01
       102 -1.203933E-04  3.526222E+01  1.649855E+01
       124  1.698519E+01  1.974489E+01 -6.149189E-01
       125 -4.096663E-05  1.114357E+02  2.968754E+00
       126 -1.698495E+01  1.974492E+01 -6.146339E-01
       127  5.537782E-08 -1.216158E+00  3.050949E-01
       128 -2.796635E-07 -2.615817E+00  9.358524E-01
       129  3.009630E-07  3.083007E+00 -9.268121E-01
       130 -3.754173E-07 -2.615818E+00  9.358524E-01
       131 -4.641262E-07 -2.334038E+00  1.080603E+00
       153  1.153672E+01 -1.326456E+02 -2.301059E+00
       154 -2.891159E+00  9.851219E+01  4.368218E-01
       155  4.104519E+00 -1.082192E+02  1.402017E+00
       156 -1.359339E-07 -1.216159E+00 -3.153568E-07
       157 -3.324219E-07 -2.615818E+00  7.018892E-01
       158  9.812307E-08  3.083008E+00  1.994012E-07
       159  1.556727E-07 -2.615818E+00 -7.018894E-01
       160 -2.384246E-08 -2.334039E+00 -1.097534E-07
       182  7.944640E+00  6.533349E+01  4.110557E-01
       183 -3.154471E-05  5.159222E+01 -1.378292E+00
       184 -7.944400E+00  6.533351E+01  4.107455E-01
       185 -7.557763E-08 -6.742476E+00 -3.050943E-01
       186  2.511784E-07 -8.142134E+00 -9.358523E-01
       187 -2.275959E-07 -2.443308E+00  9.268119E-01
       188  1.971913E-07 -8.142134E+00 -9.358519E-01
       189  4.499247E-07 -7.860355E+00 -1.080603E+00
       211 -4.104791E+00 -1.082192E+02  1.402187E+00
       212  2.890872E+00  9.851219E+01  4.371939E-01
       213 -1.153698E+01 -1.326456E+02 -2.300924E+00
       214  7.416530E-08 -1.216159E+00 -8.589611E-08
       215  1.418744E-07 -2.615818E+00 -7.018890E-01
       216 -6.380137E-09  3.083007E+00 -7.899610E-08
       217 -1.939686E-07 -2.615817E+00  7.018893E-01
       218 -5.774809E-09 -2.334038E+00  8.767562E-08
       250  1.881550E-04 -2.936902E+02 -5.865300E+00
       251  5.222779E+00  8.824777E+01  5.408062E-01
       252 -1.159412E-04  2.055858E+02  1.329646E+00
       253 -5.222352E+00  8.824776E+01  5.413554E-01
       254  1.850687E-04 -2.682457E+02  1.543790E+00
       255 -4.595773E-09 -2.432318E+00 -5.308448E-07
       256 -5.042317E-07 -5.231635E+00  1.403778E+00
       257 -2.684834E-08 -5.231635E+00 -1.712350E-08
       258  7.361577E-08  6.166015E+00  1.361078E-07
       259 -1.684904E-07 -5.231636E+00 -3.754033E-07
       260  3.310773E-07 -5.231636E+00 -1.403778E+00
       261 -2.848768E-08 -4.668077E+00 -3.566882E-08

 displacements (vx,vy,vz) for set NALL and time  0.1000000E-01

         5  0.000000E+00  0.000000E+00  0.000000E+00
         6  0.000000E+00  0.000000E+00  0.000000E+00
         7  0.000000E+00  0.000000E+00  0.000000E+00
         8  0.000000E+00  0.000000E+00  0.000000E+00
        21  0.000000E+00  0.000000E+00  0.000000E+00
        22  0.000000E+00  0.000000E+00  0.000000E+00
        23  0.000000E+00  0.000000E+00  0.000000E+00
        24  0.000000E+00  0.000000E+00  0.000000E+00
        25  0.000000E+00  0.000000E+00  0.000000E+00
        26  0.000000E+00  0.000000E+00  0.000000E+00
        27  0.000000E+00  0.000000E+00  0.000000E+00
        28  0.000000E+00  0.000000E+00  0.000000E+00
        29  0.000000E+00  0.000000E+00  0.000000E+00
        30  0.000000E+00  0.000000E+00  0.000000E+00
        31  0.000000E+00  0.000000E+00  0.000000E+00
        32  0.000000E+00  0.000000E+00  0.000000E+00
        44 -1.577307E-04  1.599477E-03 -2.339656E-04
        45 -3.928183E-05  1.242953E-03 -3.775437E-04
        46  4.375261E-05  9.177785E-04 -4.323997E-04
        47 -5.269585E-05  3.715522E-04 -2.840579E-04
        48  5.269329E-05  3.715308E-04 -2.840304E-04
        49 -4.377280E-05  9.177698E-04 -4.323514E-04
        50  3.921388E-05  1.242887E-03 -3.774896E-04
        51  1.575867E-04  1.599515E-03 -2.339313E-04
        74  1.412794E-04  1.617884E-03  2.341582E-04
        75  2.961061E-05  1.253068E-03  3.774694E-04
        76 -3.897212E-05  9.128947E-04  4.324044E-04
        77  5.545397E-05  3.685423E-04  2.841214E-04
        89 -1.414641E-04  1.617775E-03  2.341513E-04
        90 -2.976824E-05  1.253035E-03  3.775025E-04
        91  3.891883E-05  9.128787E-04  4.324569E-04
        92 -5.548140E-05  3.685359E-04  2.841471E-04
        98  0.000000E+00  0.000000E+00  0.000000E+00
        99  0.000000E+00  0.000000E+00  0.000000E+00
       100  0.000000E+00  0.000000E+00  0.000000E+00
       101  0.000000E+00  0.000000E+00  0.000000E+00
       102  0.000000E+00  0.000000E+00  0.000000E+00
       124  6.819902E-06  1.482972E-03 -2.203925E-04
       125 -6.560631E-08  1.763680E-03 -2.314398E-04
       126 -6.949965E-06  1.482956E-03 -2.204235E-04
       127 -3.108323E-08  1.302170E-03 -4.179082E-04
       128 -4.272926E-06  9.583874E-04 -4.633798E-04
       129 -9.056876E-09  8.890059E-04 -4.723918E-04
       130  4.252752E-06  9.583914E-04 -4.634034E-04
       131  1.342444E-09  3.753846E-04 -2.759850E-04
       153  1.264231E-04  1.915307E-03 -1.038794E-04
       154 -2.614285E-06  1.692644E-03 -3.789431E-08
       155 -1.212713E-04  1.925183E-03  1.040459E-04
       156  6.151248E-07  1.405505E-03  1.148615E-06
       157 -2.517053E-05  7.942837E-04 -1.859430E-04
       158 -3.564958E-08  8.106814E-04  4.497738E-07
       159  2.381377E-05  7.918714E-04  1.858876E-04
       160 -2.044860E-07  3.085494E-04  7.644022E-09
       182 -2.387633E-06  1.476286E-03  2.206349E-04
       183 -1.227711E-07  1.772080E-03  2.316760E-04
       184  2.172763E-06  1.476242E-03  2.206378E-04
       185 -6.615074E-08  1.302539E-03  4.160398E-04
       186 -1.792497E-06  9.604432E-04  4.636490E-04
       187 -3.963868E-08  8.888363E-04  4.718247E-04
       188  1.726545E-06  9.604331E-04  4.636699E-04
       189 -1.014459E-08  3.755319E-04  2.759652E-04
       211  1.211120E-04  1.925074E-03  1.041196E-04
       212  2.451866E-06  1.692539E-03  1.604594E-08
       213 -1.265815E-04  1.915275E-03 -1.037974E-04
       214 -7.217544E-07  1.405480E-03  1.204466E-06
       215 -2.386968E-05  7.918445E-04  1.859273E-04
       216 -1.402928E-08  8.106414E-04  4.963776E-07
       217  2.513569E-05  7.942592E-04 -1.859072E-04
       218  1.876520E-07  3.085391E-04  3.425564E-08
       250 -7.446326E-08  1.905942E-03 -1.030857E-04
       251 -2.086139E-06  1.209435E-03 -7.575253E-08
       252 -8.202425E-08  1.541813E-03  4.014907E-08
       253  1.923628E-06  1.209494E-03 -1.113281E-07
       254 -1.039332E-07  1.903217E-03  1.036612E-04
       255 -4.773753E-08  1.375691E-03  1.509246E-07
       256 -1.849547E-08  7.830903E-04 -2.073168E-04
       257  7.058236E-07  9.137967E-04  5.182178E-08
       258 -2.678537E-08  8.115944E-04  8.371674E-08
       259 -7.564913E-07  9.138151E-04  3.054177E-08
       260 -3.362669E-08  7.844775E-04  2.074947E-04
       261 -6.193065E-09  3.482187E-04 -1.709716E-09

 forces (fx,fy,fz) for set NALL and time  0.1000000E-01

         5 -1.681846E+00  4.315970E-01  9.194115E-01
         6  1.681961E+00  4.316626E-01  9.192471E-01
         7 -1.655378E+00  3.813451E-01 -9.196332E-01
         8  1.655490E+00  3.812207E-01 -9.194595E-01
        21  1.059832E+00 -1.690345E+00  8.963930E+00
        22  1.435266E-04  7.750551E-01  1.404542E+00
        23 -1.060306E+00 -1.690318E+00  8.964466E+00
        24  1.168422E+00 -5.957400E+00  4.718177E+00
        25  5.072277E-02  2.502447E+00  1.318998E-02
        26 -1.201532E+00 -5.915585E+00 -4.728611E+00
        27  1.032453E+00 -1.629835E+00 -8.954052E+00
        28  2.310111E-04  6.382696E-01 -1.430453E+00
        29 -1.032701E+00 -1.629918E+00 -8.954438E+00
        30  1.201473E+00 -5.915401E+00 -4.729512E+00
        31 -5.044162E-02  2.502574E+00  1.357317E-02
        32 -1.168422E+00 -5.957383E+00  4.717534E+00
        44 -6.255252E+00 -1.546215E+01 -7.550729E-01
        45  3.925004E-08  5.208710E-01 -1.306698E-01
        46 -1.764886E-07 -1.320428E+00  3.969464E-01
        47  2.175226E-07  9.996505E-01 -4.628140E-01
        48  1.830569E-07  9.996503E-01 -4.628139E-01
        49 -8.789437E-08 -1.320428E+00  3.969464E-01
        50 -6.734619E-08  5.208710E-01 -1.306698E-01
        51  6.255063E+00 -1.546169E+01 -7.557841E-01
        74  6.027012E+00 -1.509394E+01  7.519015E-01
        75  3.243152E-08  5.208717E-01  1.306696E-01
        76  1.094619E-07 -1.320428E+00 -3.969464E-01
        77 -2.254641E-07  9.996506E-01  4.628140E-01
        89 -6.026944E+00 -1.509375E+01  7.508264E-01
        90  6.754724E-08  5.208717E-01  1.306695E-01
        91  7.725576E-08 -1.320428E+00 -3.969462E-01
        92 -1.615016E-07  9.996504E-01  4.628138E-01
        98  4.789066E-05 -1.287160E+01  8.223786E+00
        99  6.013813E-02  3.902732E+00 -1.093471E-02
       100  2.620834E-04  5.255238E+00  1.465261E-03
       101 -6.055706E-02  3.902311E+00 -1.020724E-02
       102  1.507945E-04 -1.274088E+01 -8.205715E+00
       124 -6.641854E+00 -1.662827E+01  4.699967E-01
       125 -1.587582E-04 -3.146814E+01 -1.404544E+00
       126  6.642494E+00 -1.662890E+01  4.687153E-01
       127 -4.743586E-08  1.041742E+00 -2.613395E-01
       128  2.394985E-07  2.240668E+00 -8.016365E-01
       129 -2.578002E-07 -2.640856E+00  7.938927E-01
       130  3.216335E-07  2.240668E+00 -8.016365E-01
       131  3.975633E-07  1.999301E+00 -9.256279E-01
       153  4.652536E+00  5.220791E+01  1.175846E+00
       154 -4.896537E-01 -3.341946E+01 -3.649990E-03
       155 -4.320379E+00  5.193504E+01 -1.167164E+00
       156  1.163770E-07  1.041743E+00  2.700391E-07
       157  2.848041E-07  2.240669E+00 -6.012273E-01
       158 -8.404634E-08 -2.640856E+00 -1.707477E-07
       159 -1.333693E-07  2.240669E+00  6.012275E-01
       160  2.046262E-08  1.999301E+00  9.401384E-08
       182 -6.446012E+00 -1.716070E+01 -4.688212E-01
       183 -3.398938E-04 -3.026784E+01  1.393403E+00
       184  6.446218E+00 -1.716040E+01 -4.686764E-01
       185  6.473860E-08  1.069444E+00  2.613390E-01
       186 -2.151871E-07  2.268370E+00  8.016364E-01
       187  1.949551E-07 -2.613156E+00 -7.938925E-01
       188 -1.688795E-07  2.268370E+00  8.016361E-01
       189 -3.853984E-07  2.027002E+00  9.256278E-01
       211  4.321019E+00  5.193414E+01 -1.164764E+00
       212  4.897997E-01 -3.342004E+01 -5.292331E-03
       213 -4.653140E+00  5.220812E+01  1.176651E+00
       214 -6.346706E-08  1.041743E+00  7.348672E-08
       215 -1.215048E-07  2.240669E+00  6.012271E-01
       216  5.460784E-09 -2.640856E+00  6.772314E-08
       217  1.660938E-07  2.240668E+00 -6.012274E-01
       218  4.907062E-09  1.999301E+00 -7.510073E-08
       250 -3.482534E-04  1.048161E+02  2.323185E+00
       251 -5.773461E-01 -4.719432E+01 -1.178801E-02
       252  1.371712E-04 -6.934573E+01 -1.038701E-02
       253  5.773937E-01 -4.719289E+01 -1.296001E-02
       254 -3.884032E-04  1.036004E+02 -2.277927E+00
       255  3.936634E-09  2.083485E+00  4.545591E-07
       256  4.319170E-07  4.481337E+00 -1.202455E+00
       257  2.296916E-08  4.481337E+00  1.458679E-08
       258 -6.305808E-08 -5.281712E+00 -1.164743E-07
       259  1.443549E-07  4.481337E+00  3.214837E-07
       260 -2.835957E-07  4.481338E+00  1.202455E+00
       261  2.440210E-08  3.998602E+00  3.054807E-08

 displacements (vx,vy,vz) for set NALL and time  0.1500000E-01

         5  0.000000E+00  0.000000E+00  0.000000E+00
         6  0.000000E+00  0.000000E+00  0.000000E+00
         7  0.000000E+00  0.000000E+00  0.000000E+00
         8  0.000000E+00  0.000000E+00  0.000000E+00
        21  0.000000E+00  0.000000E+00  0.000000E+00
        22  0.000000E+00  0.000000E+00  0.000000E+00
        23  0.000000E+00  0.000000E+00  0.000000E+00
        24  0.000000E+00  0.000000E+00  0.000000E+00
        25  0.000000E+00  0.000000E+00  0.000000E+00
        26  0.000000E+00  0.000000E+00  0.000000E+00
        27  0.000000E+00  0.000000E+00  0.000000E+00
        28  0.000000E+00  0.000000E+00  0.000000E+00
        29  0.000000E+00  0.000000E+00  0.000000E+00
        30  0.000000E+00  0.000000E+00  0.000000E+00
        31  0.000000E+00  0.000000E+00  0.000000E+00
        32  0.000000E+00  0.000000E+00  0.000000E+00
        44  1.228219E-04 -1.272178E-03  1.854298E-04
        45  2.874295E-05 -9.889721E-04  2.986994E-04
        46 -3.355731E-05 -7.245387E-04  3.421478E-04
        47  4.245415E-05 -2.934507E-04  2.251185E-04
        48 -4.246874E-05 -2.934645E-04  2.251512E-04
        49  3.352602E-05 -7.245506E-04  3.421883E-04
        50 -2.892102E-05 -9.889338E-04  2.987570E-04
        51 -1.230883E-04 -1.272060E-03  1.855267E-04
        74 -1.212718E-04 -1.273738E-03 -1.855148E-04
        75 -2.787115E-05 -9.899486E-04 -2.987955E-04
        76  3.286887E-05 -7.239370E-04 -3.422115E-04
        77 -4.277906E-05 -2.931702E-04 -2.251536E-04
        89  1.210231E-04 -1.273850E-03 -1.854240E-04
        90  2.770290E-05 -9.899687E-04 -2.987368E-04
        91 -3.288825E-05 -7.239197E-04 -3.421693E-04
        92  4.276779E-05 -2.931521E-04 -2.251185E-04
        98  0.000000E+00  0.000000E+00  0.000000E+00
        99  0.000000E+00  0.000000E+00  0.000000E+00
       100  0.000000E+00  0.000000E+00  0.000000E+00
       101  0.000000E+00  0.000000E+00  0.000000E+00
       102  0.000000E+00  0.000000E+00  0.000000E+00
       124 -4.656295E-06 -1.172954E-03  1.748296E-04
       125 -1.738106E-07 -1.400622E-03  1.833157E-04
       126  4.376869E-06 -1.172952E-03  1.747695E-04
       127 -5.597509E-08 -1.031309E-03  3.306874E-04
       128  2.820599E-06 -7.596562E-04  3.672004E-04
       129 -4.549873E-08 -7.047210E-04  3.743486E-04
       130 -2.887593E-06 -7.596629E-04  3.671854E-04
       131 -2.069449E-09 -2.975301E-04  2.186992E-04
       153 -1.009759E-04 -1.519161E-03  8.233865E-05
       154  3.132929E-07 -1.346198E-03 -2.897527E-08
       155  1.000990E-04 -1.519066E-03 -8.245039E-05
       156 -6.655180E-08 -1.115008E-03 -1.508480E-07
       157  2.021527E-05 -6.285517E-04  1.473340E-04
       158 -3.551316E-08 -6.415628E-04 -7.197511E-08
       159 -2.011323E-05 -6.284717E-04 -1.473754E-04
       160 -1.536296E-08 -2.438789E-04 -1.928332E-08
       182 -4.649766E-06 -1.172383E-03 -1.748265E-04
       183 -1.738299E-07 -1.401220E-03 -1.833702E-04
       184  4.379388E-06 -1.172377E-03 -1.747656E-04
       185 -4.800579E-08 -1.031185E-03 -3.304814E-04
       186  2.721960E-06 -7.598176E-04 -3.672302E-04
       187 -4.267005E-08 -7.048378E-04 -3.742709E-04
       188 -2.780186E-06 -7.598219E-04 -3.672141E-04
       189  2.958511E-10 -2.975631E-04 -2.186875E-04
       211 -1.002737E-04 -1.519155E-03 -8.237370E-05
       212 -4.945587E-07 -1.346184E-03  2.225143E-08
       213  1.007944E-04 -1.519056E-03  8.240466E-05
       214 -4.070003E-08 -1.115004E-03 -7.094863E-08
       215  2.005717E-05 -6.284507E-04 -1.473245E-04
       216 -3.906747E-08 -6.415562E-04 -1.263865E-08
       217 -2.027751E-05 -6.285635E-04  1.473879E-04
       218 -3.945351E-09 -2.438771E-04 -1.835656E-10
       250 -1.063923E-07 -1.512633E-03  8.175046E-05
       251 -3.792705E-07 -9.574484E-04  2.529322E-08
       252 -1.972117E-08 -1.222670E-03 -2.532505E-08
       253  2.517395E-07 -9.574561E-04 -3.792179E-09
       254 -1.068546E-07 -1.513193E-03 -8.182451E-05
       255 -6.042013E-08 -1.090229E-03 -6.496441E-09
       256 -3.010512E-08 -6.204581E-04  1.643023E-04
       257  1.846866E-09 -7.245737E-04  1.215573E-08
       258 -1.826873E-08 -6.430034E-04 -8.957550E-10
       259 -5.102514E-08 -7.245768E-04 -1.692223E-08
       260 -2.861478E-08 -6.204503E-04 -1.643129E-04
       261 -1.328285E-08 -2.759700E-04  2.325796E-09

 forces (fx,fy,fz) for set NALL and time  0.1500000E-01

         5  1.331533E+00 -2.930072E-01 -7.354384E-01
         6 -1.331414E+00 -2.932027E-01 -7.354882E-01
         7  1.323538E+00 -2.870578E-01  7.353377E-01
         8 -1.323453E+00 -2.872143E-01  7.354463E-01
        21 -8.283834E-01  1.298454E+00 -7.097347E+00
        22  4.863067E-04 -5.605199E-01 -1.122610E+00
        23  8.277793E-01  1.297945E+00 -7.096823E+00
        24 -9.142019E-01  4.651447E+00 -3.732595E+00
        25 -4.721937E-03 -1.900546E+00 -1.466148E-03
        26  9.205265E-01  4.642515E+00  3.734453E+00
        27 -8.180381E-01  1.294315E+00  7.096153E+00
        28  5.046602E-04 -5.531662E-01  1.125783E+00
        29  8.174026E-01  1.293833E+00  7.095606E+00
        30 -9.205084E-01  4.643195E+00  3.733883E+00
        31  4.967957E-03 -1.900572E+00 -1.498054E-03
        32  9.142912E-01  4.650757E+00 -3.733132E+00
        44  4.955974E+00  1.190187E+01  5.952875E-01
        45 -3.116857E-08 -4.142605E-01  1.039246E-01
        46  1.404269E-07  1.050166E+00 -3.157004E-01
        47 -1.731679E-07 -7.950447E-01  3.680864E-01
        48 -1.454220E-07 -7.950445E-01  3.680864E-01
        49  6.984283E-08  1.050166E+00 -3.157005E-01
        50  5.351410E-08 -4.142605E-01  1.039247E-01
        51 -4.956658E+00  1.190093E+01  5.954189E-01
        74 -4.898969E+00  1.185692E+01 -5.951191E-01
        75 -2.590615E-08 -4.142611E-01 -1.039245E-01
        76 -8.708026E-08  1.050167E+00  3.157004E-01
        77  1.794914E-07 -7.950448E-01 -3.680865E-01
        89  4.898380E+00  1.185777E+01 -5.952260E-01
        90 -5.360927E-08 -4.142611E-01 -1.039244E-01
        91 -6.142056E-08  1.050167E+00  3.157003E-01
        92  1.282712E-07 -7.950447E-01 -3.680863E-01
        98  6.890587E-05  1.018358E+01 -6.517749E+00
        99 -2.440195E-03 -3.118927E+00  2.452940E-04
       100 -5.027216E-04 -4.164014E+00  3.006184E-04
       101  2.626893E-03 -3.118824E+00  1.187883E-03
       102  1.142803E-04  1.017975E+01  6.516203E+00
       124  5.167193E+00  1.348661E+01 -3.659769E-01
       125 -1.729528E-03  2.449643E+01  1.103327E+00
       126 -5.165755E+00  1.348813E+01 -3.665757E-01
       127  3.772687E-08 -8.285210E-01  2.078492E-01
       128 -1.903887E-07 -1.782054E+00  6.375597E-01
       129  2.050343E-07  2.100332E+00 -6.314009E-01
       130 -2.558922E-07 -1.782054E+00  6.375597E-01
       131 -3.161911E-07 -1.590089E+00  7.361729E-01
       153 -3.744447E+00 -4.090186E+01 -9.274623E-01
       154  4.241015E-02  2.596893E+01  1.150957E-04
       155  3.692490E+00 -4.083578E+01  9.259746E-01
       156 -9.246904E-08 -8.285215E-01 -2.146409E-07
       157 -2.265991E-07 -1.782055E+00  4.781697E-01
       158  6.683734E-08  2.100333E+00  1.357205E-07
       159  1.061119E-07 -1.782055E+00 -4.781699E-01
       160 -1.633028E-08 -1.590090E+00 -7.477254E-08
       182  5.093528E+00  1.352309E+01  3.672196E-01
       183 -1.775805E-03  2.443173E+01 -1.103745E+00
       184 -5.092116E+00  1.352468E+01  3.679017E-01
       185 -5.148812E-08 -8.299802E-01 -2.078488E-01
       186  1.711972E-07 -1.783513E+00 -6.375596E-01
       187 -1.550522E-07  2.098875E+00  6.314008E-01
       188  1.342596E-07 -1.783513E+00 -6.375594E-01
       189  3.065161E-07 -1.591547E+00 -7.361728E-01
       211 -3.692473E+00 -4.084072E+01  9.262831E-01
       212 -4.094527E-02  2.596895E+01  7.001493E-05
       213  3.744421E+00 -4.089685E+01 -9.276799E-01
       214  5.038856E-08 -8.285216E-01 -5.831831E-08
       215  9.659530E-08 -1.782055E+00 -4.781696E-01
       216 -4.336485E-09  2.100333E+00 -5.394074E-08
       217 -1.320102E-07 -1.782054E+00  4.781698E-01
       218 -3.846800E-09 -1.590089E+00  5.972812E-08
       250 -1.799243E-04 -8.287028E+01 -1.832082E+00
       251  2.168788E-02  3.760951E+01  3.228815E-03
       252  3.440501E-03  5.496172E+01 -9.032440E-04
       253 -2.431051E-02  3.760933E+01  2.083456E-03
       254 -3.417714E-04 -8.283346E+01  1.827407E+00
       255 -3.130872E-09 -1.657043E+00 -3.613050E-07
       256 -3.435134E-07 -3.564109E+00  9.563394E-01
       257 -1.822789E-08 -3.564109E+00 -1.148757E-08
       258  5.015152E-08  4.200666E+00  9.247546E-08
       259 -1.148487E-07 -3.564109E+00 -2.555696E-07
       260  2.255500E-07 -3.564110E+00 -9.563394E-01
       261 -1.940755E-08 -3.180179E+00 -2.428818E-08

 displacements (vx,vy,vz) for set NALL and time  0.2000000E-01

         5  0.000000E+00  0.000000E+00  0.000000E+00
         6  0.000000E+00  0.000000E+00  0.000000E+00
         7  0.000000E+00  0.000000E+00  0.000000E+00
         8  0.000000E+00  0.000000E+00  0.000000E+00
        21  0.000000E+00  0.000000E+00  0.000000E+00
        22  0.000000E+00  0.000000E+00  0.000000E+00
        23  0.000000E+00  0.000000E+00  0.000000E+00
        24  0.000000E+00  0.000000E+00  0.000000E+00
        25  0.000000E+00  0.000000E+00  0.000000E+00
        26  0.000000E+00  0.000000E+00  0.000000E+00
        27  0.000000E+00  0.000000E+00  0.000000E+00
        28  0.000000E+00  0.000000E+00  0.000000E+00
        29  0.000000E+00  0.000000E+00  0.000000E+00
        30  0.000000E+00  0.000000E+00  0.000000E+00
        31  0.000000E+00  0.000000E+00  0.000000E+00
        32  0.000000E+00  0.000000E+00  0.000000E+00
        44 -9.896490E-05  9.852774E-04 -1.440909E-04
        45 -2.379024E-05  7.665500E-04 -2.321875E-04
        46  2.669888E-05  5.633827E-04 -2.656134E-04
        47 -3.252752E-05  2.283857E-04 -1.749323E-04
        48  3.251951E-05  2.283834E-04 -1.749316E-04
        49 -2.672294E-05  5.633851E-04 -2.656110E-04
        50  2.377312E-05  7.665396E-04 -2.321533E-04
        51  9.903983E-05  9.851532E-04 -1.440790E-04
        74  9.381421E-05  9.891657E-04  1.441414E-04
        75  2.100980E-05  7.689924E-04  2.323021E-04
        76 -2.549857E-05  5.623577E-04  2.656514E-04
        77  3.331343E-05  2.277232E-04  1.749133E-04
        89 -9.380006E-05  9.892562E-04  1.441723E-04
        90 -2.102334E-05  7.689982E-04  2.323400E-04
        91  2.546442E-05  5.623523E-04  2.656518E-04
        92 -3.332361E-05  2.277223E-04  1.749118E-04
        98  0.000000E+00  0.000000E+00  0.000000E+00
        99  0.000000E+00  0.000000E+00  0.000000E+00
       100  0.000000E+00  0.000000E+00  0.000000E+00
       101  0.000000E+00  0.000000E+00  0.000000E+00
       102  0.000000E+00  0.000000E+00  0.000000E+00
       124  5.979339E-06  9.119787E-04 -1.358735E-04
       125  1.256432E-08  1.087065E-03 -1.425086E-04
       126 -5.947266E-06  9.120160E-04 -1.359094E-04
       127 -6.897832E-09  8.014355E-04 -2.569926E-04
       128 -2.725180E-06  5.896013E-04 -2.852227E-04
       129 -8.774000E-09  5.471206E-04 -2.909923E-04
       130  2.708955E-06  5.896056E-04 -2.852182E-04
       131 -4.219959E-09  2.308925E-04 -1.697961E-04
       153  8.026176E-05  1.179735E-03 -6.406956E-05
       154 -1.356668E-06  1.049157E-03 -2.309334E-08
       155 -7.824873E-05  1.183373E-03  6.409410E-05
       156 -1.828050E-07  8.659531E-04  2.486983E-07
       157 -1.619914E-05  4.887379E-04 -1.143921E-04
       158  2.962249E-07  4.985255E-04  8.609456E-08
       159  1.575300E-05  4.878586E-04  1.143461E-04
       160  4.343686E-08  1.891591E-04  1.090585E-08
       182  1.837615E-06  9.109135E-04  1.359342E-04
       183  5.263341E-09  1.088001E-03  1.427181E-04
       184 -1.841358E-06  9.109301E-04  1.359407E-04
       185 -1.733811E-08  8.008066E-04  2.565093E-04
       186 -1.793054E-06  5.898547E-04  2.852529E-04
       187 -6.277646E-09  5.471672E-04  2.907386E-04
       188  1.774249E-06  5.898578E-04  2.852555E-04
       189 -5.686189E-09  2.310696E-04  1.697760E-04
       211  7.824015E-05  1.183432E-03  6.407619E-05
       212  1.369847E-06  1.049144E-03  2.561586E-08
       213 -8.023694E-05  1.179645E-03 -6.411729E-05
       214  1.238658E-07  8.659456E-04  2.573849E-07
       215 -1.576388E-05  4.878518E-04  1.143641E-04
       216 -2.928197E-07  4.985254E-04  9.332656E-08
       217  1.619300E-05  4.887432E-04 -1.143692E-04
       218 -5.367901E-08  1.891580E-04  2.198577E-08
       250 -3.025436E-08  1.174936E-03 -6.357364E-05
       251 -9.838190E-07  7.433487E-04  5.764973E-08