
 displacements (vx,vy,vz) for set NALL and time  0.5000000E-02

         5  0.000000E+00  0.000000E+00  0.000000E+00
         6  0.000000E+00  0.000000E+00  0.000000E+00
         7  0.000000E+00  0.000000E+00  0.000000E+00
         8  0.000000E+00  0.000000E+00  0.000000E+00
        21  0.000000E+00  0.000000E+00  0.000000E+00
        22  0.000000E+00  0.000000E+00  0.000000E+00
        23  0.000000E+00  0.000000E+00  0.000000E+00
        24  0.000000E+00  0.000000E+00  0.000000E+00
        25  0.000000E+00  0.000000E+00  0.000000E+00
        26  0.000000E+00  0.000000E+00  0.000000E+00
        27  0.000000E+00  0.000000E+00  0.000000E+00
        28  0.000000E+00  0.000000E+00  0.000000E+00
        29  0.000000E+00  0.000000E+00  0.000000E+00
        30  0.000000E+00  0.000000E+00  0.000000E+00
        31  0.000000E+00  0.000000E+00  0.000000E+00
        32  0.000000E+00  0.000000E+00  0.000000E+00
        44 -6.128195E-05 -3.467777E-03  4.482357E-04
        45  5.562772E-05 -2.563214E-03  7.853028E-04
        46 -4.721872E-05 -1.795058E-03  9.490265E-04
        47  1.312528E-04 -6.745941E-04  5.431417E-04
        48 -1.312521E-04 -6.745933E-04  5.431389E-04
        49  4.721848E-05 -1.795077E-03  9.490375E-04
        50 -5.561134E-05 -2.563197E-03  7.852829E-04
        51  6.133448E-05 -3.467727E-03  4.482137E-04
        74  3.161557E-04 -4.407627E-03 -4.943629E-04
        75  1.894295E-04 -2.969885E-03 -7.847399E-04
        76 -1.093834E-04 -1.598860E-03 -9.499213E-04
        77 -2.073930E-04 -5.273480E-04 -5.581807E-04
        89 -3.160566E-04 -4.407650E-03 -4.943590E-04
        90 -1.894142E-04 -2.969875E-03 -7.847213E-04
        91  1.093897E-04 -1.598855E-03 -9.499217E-04
        92  2.073882E-04 -5.273508E-04 -5.581841E-04
        98  0.000000E+00  0.000000E+00  0.000000E+00
        99  0.000000E+00  0.000000E+00  0.000000E+00
       100  0.000000E+00  0.000000E+00  0.000000E+00
       101  0.000000E+00  0.000000E+00  0.000000E+00
       102  0.000000E+00  0.000000E+00  0.000000E+00
       124  1.504565E-04 -2.964558E-03  4.292452E-04
       125  4.345330E-08 -3.590853E-03  4.484503E-04
       126 -1.503507E-04 -2.964505E-03  4.292286E-04
       127  7.824149E-10 -2.562980E-03  9.031453E-04
       128 -9.427169E-06 -1.952963E-03  9.480842E-04
       129  1.235392E-08 -1.813783E-03  9.413180E-04
       130  9.430178E-06 -1.952971E-03  9.480831E-04
       131  4.735252E-10 -7.362226E-04  5.562655E-04
       153  7.007249E-05 -3.637710E-03  1.909400E-04
       154 -1.202869E-04 -2.503091E-03 -2.096287E-05
       155 -6.421971E-05 -3.887741E-03 -2.378971E-04
       156 -1.195894E-04 -2.789134E-03 -6.435390E-05
       157 -2.059954E-05 -1.508583E-03  3.922363E-04
       158  8.814284E-05 -1.567052E-03 -2.928739E-05
       159  4.660667E-05 -1.475979E-03 -4.110404E-04
       160  3.965282E-05 -6.565290E-04  4.892713E-06
       182  1.140859E-04 -2.563947E-03 -4.710100E-04
       183  1.601296E-08 -4.352654E-03 -4.763749E-04
       184 -1.140012E-04 -2.563881E-03 -4.710092E-04
       185  8.886555E-09 -2.832948E-03 -8.741651E-04
       186 -4.377490E-05 -2.161892E-03 -9.826033E-04
       187  2.824351E-09 -1.831927E-03 -9.638041E-04
       188  4.377642E-05 -2.161907E-03 -9.826027E-04
       189  1.519644E-09 -7.200293E-04 -5.645105E-04
       211  6.419888E-05 -3.887708E-03 -2.379144E-04
       212  1.203932E-04 -2.503080E-03 -2.095936E-05
       213 -7.006160E-05 -3.637717E-03  1.909401E-04
       214  1.196570E-04 -2.789143E-03 -6.435893E-05
       215 -4.659092E-05 -1.475979E-03 -4.110446E-04
       216 -8.817919E-05 -1.567039E-03 -2.929748E-05
       217  2.059951E-05 -1.508579E-03  3.922325E-04
       218 -3.966552E-05 -6.565275E-04  4.890255E-06
       250  2.797409E-08 -4.080822E-03  1.744134E-04
       251  2.980206E-05 -2.571682E-03 -1.052744E-05
       252 -4.872901E-09 -3.123175E-03 -1.604801E-05
       253 -2.980937E-05 -2.571722E-03 -1.052427E-05
       254  1.958615E-09 -4.411721E-03 -2.542422E-04
       255  4.067218E-09 -2.599237E-03 -3.208486E-05
       256  4.457420E-09 -1.607279E-03  3.955971E-04
       257 -4.088217E-05 -1.749319E-03 -1.208308E-05
       258  1.404264E-09 -1.790130E-03 -1.458558E-05
       259  4.087872E-05 -1.749319E-03 -1.207637E-05
       260  2.005003E-09 -1.622479E-03 -4.182946E-04
       261  1.365617E-09 -7.169979E-04 -1.960904E-06

 forces (fx,fy,fz) for set NALL and time  0.5000000E-02

         5  2.300874E+00 -4.168581E+00 -1.104763E+00
         6 -2.301031E+00 -4.168243E+00 -1.104858E+00
         7  3.468453E+00  1.067209E+00  1.267788E+00
         8 -3.469067E+00  1.067937E+00  1.267881E+00
        21 -2.786936E+00  5.558200E+00 -1.789247E+01
        22 -4.034318E-05 -9.854284E+00 -6.670119E-01
        23  2.786878E+00  5.557519E+00 -1.789242E+01
        24 -4.627804E+00  1.710949E+01 -1.021995E+01
        25  8.639728E-01 -1.152325E+01 -4.564550E-01
        26  2.144941E+00  1.343921E+01  1.050493E+01
        27 -1.833567E+00 -4.284660E-01  1.760043E+01
        28 -1.817369E-04 -1.626587E+00  1.775278E+00
        29  1.833820E+00 -4.292661E-01  1.760052E+01
        30 -2.144199E+00  1.343879E+01  1.050496E+01
        31 -8.653287E-01 -1.152306E+01 -4.562397E-01
        32  4.628453E+00  1.710968E+01 -1.022008E+01
        44  1.957245E+00  5.179552E+01  1.433566E+00
        45 -7.051686E-04 -6.039728E-01  1.541540E-01
        46  5.380084E-04  1.538451E+00 -4.637924E-01
        47 -1.866334E-04 -1.166204E+00  5.405092E-01
        48  2.055868E-04 -1.166074E+00  5.405674E-01
        49 -4.820318E-04  1.538511E+00 -4.638119E-01
        50  5.253155E-04 -6.042048E-01  1.541118E-01
        51 -1.955488E+00  5.179882E+01  1.432594E+00
        74 -7.443677E+00  1.770362E+01 -9.871509E-01
        75  7.217958E-05 -6.124345E-01 -1.514104E-01
        76 -1.701530E-04  1.544515E+00  4.630029E-01
        77  4.050233E-04 -1.167415E+00 -5.401532E-01
        89  7.447957E+00  1.769843E+01 -9.862697E-01
        90 -3.519395E-04 -6.120708E-01 -1.514049E-01
        91  2.172901E-04  1.544452E+00  4.630154E-01
        92 -3.458325E-04 -1.167642E+00 -5.401474E-01
        98 -1.223810E-04  3.794425E+01 -1.716856E+01
        99 -2.150088E-01 -7.604942E+00  6.495719E-01
       100 -9.486429E-04 -2.288716E+01 -3.791197E-01
       101  2.165658E-01 -7.604467E+00  6.497877E-01
       102  2.419567E-04  3.527994E+01  1.649621E+01
       124  1.705493E+01  1.988348E+01 -6.138379E-01
       125  6.810222E-04  1.111712E+02  2.964896E+00
       126 -1.705430E+01  1.988821E+01 -6.153749E-01
       127  4.298472E-05 -1.208014E+00  3.074136E-01
       128  4.498914E-04 -2.611823E+00  9.371173E-01
       129 -1.939572E-05  3.076957E+00 -9.272846E-01
       130 -4.953986E-04 -2.611713E+00  9.370271E-01
       131  5.246400E-05 -2.332291E+00  1.080836E+00
       153  1.152394E+01 -1.326511E+02 -2.299363E+00
       154 -2.969778E+00  9.859912E+01  4.311852E-01
       155  4.115910E+00 -1.083776E+02  1.408942E+00
       156 -1.156474E-03 -1.215575E+00 -2.451440E-03
       157 -7.516391E-04 -2.612598E+00  7.018902E-01
       158  5.670684E-04  3.082801E+00  1.144113E-03
       159 -5.591584E-06 -2.618766E+00 -7.021854E-01
       160 -1.125619E-04 -2.333962E+00 -3.244226E-04
       182  8.084233E+00  6.519003E+01  4.179051E-01
       183  1.761862E-03  5.181807E+01 -1.386808E+00
       184 -8.085665E+00  6.519636E+01  4.168295E-01
       185  1.282817E-04 -6.752206E+00 -3.022272E-01
       186  2.575078E-04 -8.146642E+00 -9.345121E-01
       187 -4.742827E-05 -2.436902E+00  9.261175E-01
       188 -2.932496E-04 -8.146467E+00 -9.344755E-01
       189  3.916258E-05 -7.862115E+00 -1.079826E+00
       211 -4.122218E+00 -1.083743E+02  1.407442E+00
       212  2.980281E+00  9.859785E+01  4.313214E-01
       213 -1.152836E+01 -1.326532E+02 -2.298191E+00
       214  9.168577E-04 -1.215638E+00 -2.272410E-03
       215 -1.587362E-04 -2.618617E+00 -7.022077E-01
       216 -4.527637E-04  3.082792E+00  1.062736E-03
       217  6.163784E-04 -2.612735E+00  7.019121E-01
       218  5.333627E-05 -2.333933E+00 -4.524181E-04
       250  6.081222E-04 -2.934377E+02 -5.860455E+00
       251  5.088776E+00  8.825245E+01  5.453432E-01
       252  6.869394E-03  2.055296E+02  1.307072E+00
       253 -5.101428E+00  8.824877E+01  5.454081E-01
       254 -2.093892E-03 -2.684094E+02  1.549577E+00
       255  3.258901E-04 -2.431919E+00 -5.999408E-03
       256  8.286949E-05 -5.225269E+00  1.402782E+00
       257  7.118537E-04 -5.231332E+00 -2.624917E-03
       258 -6.388466E-05  6.166116E+00  2.356473E-03
       259 -6.807176E-04 -5.231310E+00 -2.648435E-03
       260  1.672391E-04 -5.238655E+00 -1.403954E+00
       261 -5.135269E-05 -4.668387E+00 -9.043264E-04

 displacements (vx,vy,vz) for set NALL and time  0.1000000E-01

         5  0.000000E+00  0.000000E+00  0.000000E+00
         6  0.000000E+00  0.000000E+00  0.000000E+00
         7  0.000000E+00  0.000000E+00  0.000000E+00
         8  0.000000E+00  0.000000E+00  0.000000E+00
        21  0.000000E+00  0.000000E+00  0.000000E+00
        22  0.000000E+00  0.000000E+00  0.000000E+00
        23  0.000000E+00  0.000000E+00  0.000000E+00
        24  0.000000E+00  0.000000E+00  0.000000E+00
        25  0.000000E+00  0.000000E+00  0.000000E+00
        26  0.000000E+00  0.000000E+00  0.000000E+00
        27  0.000000E+00  0.000000E+00  0.000000E+00
        28  0.000000E+00  0.000000E+00  0.000000E+00
        29  0.000000E+00  0.000000E+00  0.000000E+00
        30  0.000000E+00  0.000000E+00  0.000000E+00
        31  0.000000E+00  0.000000E+00  0.000000E+00
        32  0.000000E+00  0.000000E+00  0.000000E+00
        44 -1.590645E-04  1.605228E-03 -2.337056E-04
        45 -3.858275E-05  1.248027E-03 -3.771993E-04
        46  4.248870E-05  9.136863E-04 -4.321259E-04
        47 -5.312311E-05  3.703466E-04 -2.841011E-04
        48  5.311453E-05  3.703449E-04 -2.840614E-04
        49 -4.248670E-05  9.136807E-04 -4.320685E-04
        50  3.841886E-05  1.248065E-03 -3.772157E-04
        51  1.588084E-04  1.605373E-03 -2.337059E-04
        74  1.473867E-04  1.618861E-03  2.340087E-04
        75  3.181511E-05  1.255231E-03  3.772315E-04
        76 -4.030792E-05  9.115818E-04  4.322387E-04
        77  5.500030E-05  3.682671E-04  2.841861E-04
        89 -1.475799E-04  1.618740E-03  2.339956E-04
        90 -3.196477E-05  1.255223E-03  3.772164E-04
        91  4.033985E-05  9.115907E-04  4.322834E-04
        92 -5.499896E-05  3.682888E-04  2.842305E-04
        98  0.000000E+00  0.000000E+00  0.000000E+00
        99  0.000000E+00  0.000000E+00  0.000000E+00
       100  0.000000E+00  0.000000E+00  0.000000E+00
       101  0.000000E+00  0.000000E+00  0.000000E+00
       102  0.000000E+00  0.000000E+00  0.000000E+00
       124  1.372769E-05  1.480791E-03 -2.201767E-04
       125 -1.661337E-07  1.769746E-03 -2.311025E-04
       126 -1.402382E-05  1.480722E-03 -2.202073E-04
       127 -3.487536E-08  1.302469E-03 -4.182698E-04
       128 -5.145070E-06  9.590882E-04 -4.636780E-04
       129 -4.495600E-08  8.901054E-04 -4.729050E-04
       130  5.101319E-06  9.590920E-04 -4.636944E-04
       131 -7.183361E-10  3.751117E-04 -2.759990E-04
       153  1.285272E-04  1.909785E-03 -1.038430E-04
       154 -1.541774E-06  1.697527E-03  1.309981E-07
       155 -1.250116E-04  1.925553E-03  1.040983E-04
       156  4.096721E-07  1.407754E-03  9.863405E-07
       157 -2.600045E-05  7.944035E-04 -1.861159E-04
       158  3.009102E-07  8.096597E-04  3.225086E-07
       159  2.506023E-05  7.914076E-04  1.861615E-04
       160 -2.149922E-07  3.078198E-04 -5.127631E-08
       182 -1.088964E-06  1.476065E-03  2.206842E-04
       183 -1.594943E-07  1.775658E-03  2.312911E-04
       184  8.496888E-07  1.476017E-03  2.207566E-04
       185 -1.317662E-08  1.303226E-03  4.168887E-04
       186 -2.022810E-06  9.607370E-04  4.639393E-04
       187 -3.962467E-08  8.893679E-04  4.726477E-04
       188  1.994240E-06  9.607410E-04  4.639429E-04
       189  5.182323E-09  3.753750E-04  2.761510E-04
       211  1.249336E-04  1.925463E-03  1.041713E-04
       212  1.282244E-06  1.697621E-03  6.957291E-08
       213 -1.286674E-04  1.909975E-03 -1.037235E-04
       214 -4.954594E-07  1.407773E-03  1.032191E-06
       215 -2.509802E-05  7.914343E-04  1.861844E-04
       216 -3.382389E-07  8.096730E-04  3.721701E-07
       217  2.595420E-05  7.943929E-04 -1.860954E-04
       218  2.185725E-07  3.078213E-04 -4.015331E-08
       250 -8.075400E-08  1.919307E-03 -1.026703E-04
       251 -5.822758E-06  1.209136E-03 -1.540377E-07
       252  4.285096E-08  1.542641E-03  2.607549E-07
       253  5.768957E-06  1.209112E-03 -5.903881E-08
       254 -7.081847E-08  1.908891E-03  1.034987E-04
       255 -4.839146E-08  1.375667E-03  2.484970E-07
       256 -1.706720E-08  7.816550E-04 -2.073385E-04
       257  1.288320E-06  9.145144E-04  1.236667E-07
       258  2.330109E-09  8.124297E-04  8.933777E-08
       259 -1.309819E-06  9.145024E-04  8.111011E-08
       260 -1.594052E-08  7.842436E-04  2.075112E-04
       261 -1.213319E-08  3.485931E-04 -5.174347E-09

 forces (fx,fy,fz) for set NALL and time  0.1000000E-01

         5 -1.672345E+00  3.583430E-01  9.280055E-01
         6  1.672672E+00  3.578645E-01  9.274881E-01
         7 -1.681510E+00  3.451528E-01 -9.277300E-01
         8  1.681928E+00  3.447190E-01 -9.272629E-01
        21  1.014361E+00 -1.628437E+00  8.956204E+00
        22  6.688601E-04  7.786664E-01  1.406132E+00
        23 -1.014935E+00 -1.628492E+00  8.956547E+00
        24  1.135772E+00 -5.856396E+00  4.710354E+00
        25  5.207022E-02  2.396500E+00  7.314424E-03
        26 -1.153270E+00 -5.873673E+00 -4.718311E+00
        27  1.042972E+00 -1.586755E+00 -8.950407E+00
        28  8.975506E-04  6.405343E-01 -1.420641E+00
        29 -1.043979E+00 -1.586518E+00 -8.951006E+00
        30  1.152562E+00 -5.872899E+00 -4.719145E+00
        31 -5.037479E-02  2.396260E+00  7.472764E-03
        32 -1.136169E+00 -5.857149E+00  4.709085E+00
        44 -6.220390E+00 -1.491807E+01 -7.499122E-01
        45  6.039447E-04  5.173077E-01 -1.320375E-01
        46 -4.612846E-04 -1.317769E+00  3.972684E-01
        47  1.607902E-04  9.989401E-01 -4.629859E-01
        48 -1.770253E-04  9.988280E-01 -4.630357E-01
        49  4.133353E-04 -1.317820E+00  3.972851E-01
        50 -4.498846E-04  5.175064E-01 -1.320014E-01
        51  6.217945E+00 -1.492199E+01 -7.524678E-01
        74  6.239324E+00 -1.482795E+01  7.477765E-01
        75 -6.127795E-05  5.245560E-01  1.296869E-01
        76  1.459083E-04 -1.322964E+00 -3.965916E-01
        77 -3.479114E-04  9.999770E-01  4.626809E-01
        89 -6.243253E+00 -1.482355E+01  7.454738E-01
        90  3.009164E-04  5.242445E-01  1.296822E-01
        91 -1.862856E-04 -1.322909E+00 -3.966023E-01
        92  2.972096E-04  1.000171E+00  4.626759E-01
        98 -1.475560E-04 -1.302159E+01  8.239914E+00
        99  8.193125E-02  3.957191E+00 -6.992756E-03
       100 -5.809251E-05  5.326043E+00  3.410101E-04
       101 -8.287271E-02  3.957378E+00 -7.110804E-03
       102 -3.856342E-05 -1.284217E+01 -8.227779E+00
       124 -6.287983E+00 -1.707372E+01  4.644096E-01
       125 -2.158663E-03 -3.149038E+01 -1.398264E+00
       126  6.289412E+00 -1.707556E+01  4.627177E-01
       127 -3.681931E-05  1.034674E+00 -2.633081E-01
       128 -3.859389E-04  2.237188E+00 -8.027033E-01
       129  1.661352E-05 -2.635585E+00  7.942795E-01
       130  4.249203E-04  2.237094E+00 -8.026261E-01
       131 -4.493977E-05  1.997779E+00 -9.258153E-01
       153  4.885144E+00  5.145021E+01  1.168397E+00
       154 -5.147158E-01 -3.270440E+01 -9.586411E-04
       155 -4.664044E+00  5.163413E+01 -1.163390E+00
       156  9.900091E-04  1.041150E+00  2.098960E-03
       157  6.444092E-04  2.237852E+00 -6.012164E-01
       158 -4.857016E-04 -2.640591E+00 -9.794644E-04
       159  4.564855E-06  2.243135E+00  6.014686E-01
       160  9.681129E-05  1.999211E+00  2.779026E-04
       182 -6.516363E+00 -1.745827E+01 -4.598446E-01
       183 -3.550259E-03 -3.027686E+01  1.383126E+00
       184  6.519489E+00 -1.746201E+01 -4.565063E-01
       185 -1.098837E-04  1.077688E+00  2.588646E-01
       186 -2.208929E-04  2.272171E+00  8.004711E-01
       187  4.062591E-05 -2.618554E+00 -7.932787E-01
       188  2.515093E-04  2.272022E+00  8.004398E-01
       189 -3.354597E-05  2.028483E+00  9.249505E-01
       211  4.668802E+00  5.162676E+01 -1.159663E+00
       212  5.064783E-01 -3.270244E+01 -5.496019E-03
       213 -4.881318E+00  5.145717E+01  1.174628E+00
       214 -7.847563E-04  1.041204E+00  1.945605E-03
       215  1.361963E-04  2.243007E+00  6.014876E-01
       216  3.877891E-04 -2.640583E+00 -9.097579E-04
       217 -5.285463E-04  2.237969E+00 -6.012352E-01
       218 -4.607932E-05  1.999186E+00  3.875414E-04
       250  2.324652E-04  1.059127E+02  2.337083E+00
       251 -7.748766E-01 -4.761021E+01 -2.131652E-02
       252 -2.425583E-03 -6.972090E+01 -3.306009E-03
       253  7.833669E-01 -4.760985E+01 -1.684808E-02
       254  6.172006E-04  1.043010E+02 -2.288148E+00
       255 -2.791514E-04  2.082958E+00  5.137452E-03
       256 -7.098406E-05  4.475766E+00 -1.201577E+00
       257 -6.100497E-04  4.480959E+00  2.247650E-03
       258  5.472170E-05 -5.281622E+00 -2.017377E-03
       259  5.833802E-04  4.480940E+00  2.267796E-03
       260 -1.432539E-04  4.487230E+00  1.202580E+00
       261  4.398813E-05  3.998817E+00  7.745776E-04

 displacements (vx,vy,vz) for set NALL and time  0.1500000E-01

         5  0.000000E+00  0.000000E+00  0.000000E+00
         6  0.000000E+00  0.000000E+00  0.000000E+00
         7  0.000000E+00  0.000000E+00  0.000000E+00
         8  0.000000E+00  0.000000E+00  0.000000E+00
        21  0.000000E+00  0.000000E+00  0.000000E+00
        22  0.000000E+00  0.000000E+00  0.000000E+00
        23  0.000000E+00  0.000000E+00  0.000000E+00
        24  0.000000E+00  0.000000E+00  0.000000E+00
        25  0.000000E+00  0.000000E+00  0.000000E+00
        26  0.000000E+00  0.000000E+00  0.000000E+00
        27  0.000000E+00  0.000000E+00  0.000000E+00
        28  0.000000E+00  0.000000E+00  0.000000E+00
        29  0.000000E+00  0.000000E+00  0.000000E+00
        30  0.000000E+00  0.000000E+00  0.000000E+00
        31  0.000000E+00  0.000000E+00  0.000000E+00
        32  0.000000E+00  0.000000E+00  0.000000E+00
        44  1.216814E-04 -1.274086E-03  1.849200E-04
        45  2.793868E-05 -9.893742E-04  2.988506E-04
        46 -3.307190E-05 -7.243732E-04  3.421526E-04
        47  4.259826E-05 -2.932432E-04  2.251124E-04
        48 -4.259495E-05 -2.932467E-04  2.250906E-04
        49  3.306302E-05 -7.243823E-04  3.421294E-04
        50 -2.786415E-05 -9.893975E-04  2.988681E-04
        51 -1.215400E-04 -1.274166E-03  1.849057E-04
        74 -1.216317E-04 -1.272714E-03 -1.850307E-04
        75 -2.816696E-05 -9.888927E-04 -2.989525E-04
        76  3.330760E-05 -7.248390E-04 -3.422278E-04
        77 -4.255024E-05 -2.934520E-04 -2.251218E-04
        89  1.216704E-04 -1.272699E-03 -1.850082E-04
        90  2.821852E-05 -9.888733E-04 -2.989184E-04
        91 -3.334361E-05 -7.248576E-04 -3.422325E-04
        92  4.254267E-05 -2.934647E-04 -2.251378E-04
        98  0.000000E+00  0.000000E+00  0.000000E+00
        99  0.000000E+00  0.000000E+00  0.000000E+00
       100  0.000000E+00  0.000000E+00  0.000000E+00
       101  0.000000E+00  0.000000E+00  0.000000E+00
       102  0.000000E+00  0.000000E+00  0.000000E+00
       124 -4.468467E-06 -1.171487E-03  1.741238E-04
       125  1.024202E-07 -1.401317E-03  1.828913E-04
       126  4.646948E-06 -1.171433E-03  1.741548E-04
       127  6.528262E-09 -1.031743E-03  3.301247E-04
       128  2.828326E-06 -7.600023E-04  3.672130E-04
       129  2.564166E-08 -7.042253E-04  3.742487E-04
       130 -2.808398E-06 -7.600021E-04  3.672162E-04
       131 -7.039887E-10 -2.973032E-04  2.185937E-04
       153 -1.003770E-04 -1.520774E-03  8.209978E-05
       154  3.717082E-07 -1.345548E-03 -9.698890E-08
       155  1.002700E-04 -1.520976E-03 -8.220605E-05
       156  2.758508E-07 -1.114130E-03 -1.152717E-08
       157  2.012692E-05 -6.285572E-04  1.472335E-04
       158 -1.831550E-07 -6.422539E-04  1.504396E-08
       159 -2.006602E-05 -6.285898E-04 -1.472699E-04
       160 -6.377452E-08 -2.440948E-04 -5.321916E-09
       182 -3.705384E-06 -1.172211E-03 -1.742759E-04
       183  6.403768E-08 -1.400165E-03 -1.830292E-04
       184  3.786014E-06 -1.172196E-03 -1.743061E-04
       185 -9.452403E-09 -1.031414E-03 -3.302543E-04
       186  2.747778E-06 -7.599008E-04 -3.672483E-04
       187  1.674314E-08 -7.045840E-04 -3.743039E-04
       188 -2.747277E-06 -7.599133E-04 -3.672404E-04
       189 -5.961245E-09 -2.974792E-04 -2.186433E-04
       211 -1.003048E-04 -1.520931E-03 -8.218751E-05
       212 -2.547678E-07 -1.345587E-03 -3.198734E-08
       213  1.004370E-04 -1.520888E-03  8.201392E-05
       214 -2.500309E-07 -1.114167E-03 -2.199223E-08
       215  2.007515E-05 -6.286099E-04 -1.472750E-04
       216  1.857623E-07 -6.422525E-04 -2.537910E-09
       217 -2.011301E-05 -6.285501E-04  1.472353E-04
       218  5.422742E-08 -2.440987E-04 -2.797372E-09
       250  3.233103E-08 -1.511232E-03  8.151420E-05
       251  1.703909E-07 -9.569747E-04 -1.481408E-08
       252 -6.065674E-08 -1.220335E-03 -5.761426E-08
       253 -2.007011E-07 -9.569815E-04 -9.177278E-08
       254  5.400542E-09 -1.510171E-03 -8.162179E-05
       255  1.612115E-08 -1.090416E-03 -5.359289E-08
       256  3.886333E-09 -6.201519E-04  1.643107E-04
       257  9.122515E-09 -7.244645E-04 -4.364559E-08
       258 -1.203619E-08 -6.425996E-04 -3.086420E-08
       259 -1.454163E-08 -7.244590E-04 -2.235149E-08
       260  1.309716E-09 -6.204541E-04 -1.643625E-04
       261  5.988983E-09 -2.759915E-04  7.689022E-09

 forces (fx,fy,fz) for set NALL and time  0.1500000E-01

         5  1.324792E+00 -2.995307E-01 -7.334314E-01
         6 -1.324938E+00 -2.992164E-01 -7.330470E-01
         7  1.324081E+00 -3.078620E-01  7.328592E-01
         8 -1.324391E+00 -3.074412E-01  7.327370E-01
        21 -8.129911E-01  1.290729E+00 -7.094410E+00
        22 -3.903534E-04 -5.496798E-01 -1.127338E+00
        23  8.132322E-01  1.290548E+00 -7.094448E+00
        24 -9.163262E-01  4.674156E+00 -3.735635E+00
        25 -3.894098E-03 -1.931074E+00  5.329145E-04
        26  9.228212E-01  4.680480E+00  3.735529E+00
        27 -8.186363E-01  1.301276E+00  7.095977E+00
        28 -5.548020E-04 -5.570689E-01  1.125575E+00
        29  8.191574E-01  1.301152E+00  7.096245E+00
        30 -9.222687E-01  4.680018E+00  3.735629E+00
        31  2.736533E-03 -1.931052E+00  6.087547E-04
        32  9.166447E-01  4.674757E+00 -3.734957E+00
        44  4.916399E+00  1.193208E+01  5.972441E-01
        45 -4.798507E-04 -4.113464E-01  1.049977E-01
        46  3.674857E-04  1.047975E+00 -3.159408E-01
        47 -1.295547E-04 -7.944578E-01  3.682129E-01
        48  1.424665E-04 -7.943686E-01  3.682525E-01
        49 -3.293490E-04  1.048016E+00 -3.159541E-01
        50  3.573211E-04 -4.115045E-01  1.049690E-01
        51 -4.914662E+00  1.193520E+01  5.991104E-01
        74 -4.909281E+00  1.200410E+01 -5.986774E-01
        75  4.760315E-05 -4.171113E-01 -1.031275E-01
        76 -1.162687E-04  1.052106E+00  3.154018E-01
        77  2.784513E-04 -7.952821E-01 -3.679701E-01
        89  4.912202E+00  1.200035E+01 -5.980541E-01
        90 -2.381943E-04 -4.168636E-01 -1.031238E-01
        91  1.483827E-04  1.052063E+00  3.154103E-01
        92 -2.381273E-04 -7.954365E-01 -3.679662E-01
        98  2.296541E-06  1.018098E+01 -6.516827E+00
        99 -1.667685E-03 -3.116337E+00 -6.250966E-04
       100  3.681830E-05 -4.174649E+00  1.180820E-03
       101  2.311691E-03 -3.116118E+00 -2.844170E-04
       102  2.009953E-04  1.017627E+01  6.517417E+00
       124  5.076363E+00  1.355307E+01 -3.759684E-01
       125  1.481315E-03  2.441787E+01  1.111501E+00
       126 -5.077030E+00  1.355494E+01 -3.743882E-01
       127  2.928122E-05 -8.227388E-01  2.093844E-01
       128  3.078439E-04 -1.779183E+00  6.383789E-01
       129 -1.321157E-05  2.095987E+00 -6.316769E-01
       130 -3.388486E-04 -1.779108E+00  6.383175E-01
       131  3.574139E-05 -1.588834E+00  7.363013E-01
       153 -3.738302E+00 -4.105810E+01 -9.289299E-01
       154  2.911013E-02  2.617717E+01 -4.436828E-04
       155  3.693383E+00 -4.111885E+01  9.309743E-01
       156 -7.865077E-04 -8.278879E-01 -1.668077E-03
       157 -5.133944E-04 -1.779712E+00  4.781405E-01
       158  3.862284E-04  2.099967E+00  7.781970E-04
       159 -3.229100E-06 -1.783913E+00 -4.783400E-01
       160 -7.755122E-05 -1.589975E+00 -2.210329E-04
       182  5.117405E+00  1.346743E+01  3.753439E-01
       183  2.455854E-03  2.449441E+01 -1.112392E+00
       184 -5.119145E+00  1.347054E+01  3.740773E-01
       185  8.739174E-05 -8.363765E-01 -2.058491E-01
       186  1.762221E-04 -1.786432E+00 -6.366027E-01
       187 -3.230965E-05  2.103014E+00  6.308795E-01
       188 -2.005734E-04 -1.786313E+00 -6.365778E-01
       189  2.667968E-05 -1.592679E+00 -7.356131E-01
       211 -3.697496E+00 -4.111371E+01  9.302794E-01
       212 -2.252085E-02  2.617598E+01  1.948866E-03
       213  3.735564E+00 -4.106299E+01 -9.335724E-01
       214  6.232626E-04 -8.279311E-01 -1.546110E-03
       215 -1.087229E-04 -1.783811E+00 -4.783551E-01
       216 -3.083538E-04  2.099962E+00  7.227569E-04
       217  4.212442E-04 -1.779805E+00  4.781554E-01
       218  3.720243E-05 -1.589955E+00 -3.082307E-04
       250 -7.395943E-05 -8.281721E+01 -1.835358E+00
       251  1.606881E-02  3.757898E+01  1.890717E-04
       252  2.433367E-03  5.503948E+01  1.684238E-03
       253 -2.317380E-02  3.757768E+01 -3.218849E-03
       254 -1.031767E-03 -8.280525E+01  1.835381E+00
       255  2.220128E-04 -1.656301E+00 -4.083760E-03
       256  5.645341E-05 -3.559472E+00  9.555995E-01
       257  4.855850E-04 -3.563602E+00 -1.786466E-03
       258 -4.351896E-05  4.200285E+00  1.602865E-03
       259 -4.643772E-04 -3.563587E+00 -1.802490E-03
       260  1.139317E-04 -3.568587E+00 -9.563949E-01
       261 -3.498532E-05 -3.180262E+00 -6.159625E-04

 displacements (vx,vy,vz) for set NALL and time  0.2000000E-01

         5  0.000000E+00  0.000000E+00  0.000000E+00
         6  0.000000E+00  0.000000E+00  0.000000E+00
         7  0.000000E+00  0.000000E+00  0.000000E+00
         8  0.000000E+00  0.000000E+00  0.000000E+00
        21  0.000000E+00  0.000000E+00  0.000000E+00
        22  0.000000E+00  0.000000E+00  0.000000E+00
        23  0.000000E+00  0.000000E+00  0.000000E+00
        24  0.000000E+00  0.000000E+00  0.000000E+00
        25  0.000000E+00  0.000000E+00  0.000000E+00
        26  0.000000E+00  0.000000E+00  0.000000E+00
        27  0.000000E+00  0.000000E+00  0.000000E+00
        28  0.000000E+00  0.000000E+00  0.000000E+00
        29  0.000000E+00  0.000000E+00  0.000000E+00
        30  0.000000E+00  0.000000E+00  0.000000E+00
        31  0.000000E+00  0.000000E+00  0.000000E+00
        32  0.000000E+00  0.000000E+00  0.000000E+00
        44 -9.487945E-05  9.890387E-04 -1.432647E-04
        45 -2.168942E-05  7.681089E-04 -2.319761E-04
        46  2.572404E-05  5.625006E-04 -2.656626E-04
        47 -3.305446E-05  2.276552E-04 -1.747863E-04
        48  3.304570E-05  2.276602E-04 -1.747554E-04
        49 -2.571670E-05  5.625121E-04 -2.656264E-04
        50  2.157374E-05  7.681516E-04 -2.320060E-04
        51  9.470245E-05  9.891927E-04 -1.432718E-04
        74  9.528505E-05  9.872644E-04  1.433414E-04
        75  2.219111E-05  7.673968E-04  2.320636E-04
        76 -2.605180E-05  5.629637E-04  2.657042E-04
        77  3.292204E-05  2.279267E-04  1.747773E-04
        89 -9.531124E-05  9.872417E-04  1.433175E-04
        90 -2.226284E-05  7.673820E-04  2.320264E-04
        91  2.610286E-05  5.629962E-04  2.657225E-04
        92 -3.291291E-05  2.279445E-04  1.748027E-04
        98  0.000000E+00  0.000000E+00  0.000000E+00
        99  0.000000E+00  0.000000E+00  0.000000E+00
       100  0.000000E+00  0.000000E+00  0.000000E+00
       101  0.000000E+00  0.000000E+00  0.000000E+00
       102  0.000000E+00  0.000000E+00  0.000000E+00
       124  3.249479E-06  9.091485E-04 -1.348423E-04
       125 -1.364080E-07  1.088180E-03 -1.416913E-04
       126 -3.468118E-06  9.090845E-04 -1.348783E-04
       127 -1.646940E-08  8.011383E-04 -2.562805E-04
       128 -2.145635E-06  5.902003E-04 -2.851895E-04
       129 -3.625680E-08  5.467116E-04 -2.906686E-04
       130  2.111152E-06  5.901931E-04 -2.851943E-04
       131 -3.558416E-10  2.307579E-04 -1.696863E-04
       153  7.827587E-05  1.181628E-03 -6.359289E-05
       154 -2.483394E-07  1.045318E-03  1.137442E-07
       155 -7.835942E-05  1.181106E-03  6.363637E-05
       156 -2.824609E-07  8.652450E-04 -2.256008E-08
       157 -1.572502E-05  4.878502E-04 -1.143025E-04
       158  1.523314E-07  4.985409E-04 -4.334435E-08
       159  1.570533E-05  4.879973E-04  1.143228E-04
       160  6.688588E-08  1.894214E-04  2.166123E-09
       182  3.218634E-06  9.099978E-04  1.349469E-04
       183 -8.483608E-08  1.086975E-03  1.418197E-04
       184 -3.304436E-06  9.100092E-04  1.350069E-04
       185  1.657117E-08  8.007778E-04  2.564983E-04
       186 -2.214997E-06  5.900320E-04  2.851987E-04
       187 -2.290900E-08  5.470869E-04  2.907162E-04
       188  2.213349E-06  5.900454E-04  2.851914E-04
       189  8.891079E-09  2.309022E-04  1.697170E-04
       211  7.839068E-05  1.181063E-03  6.362652E-05
       212  1.240073E-07  1.045378E-03  2.277006E-08
       213 -7.835621E-05  1.181794E-03 -6.349263E-05
       214  2.603506E-07  8.652946E-04 -7.155636E-09
       215 -1.571401E-05  4.880290E-04  1.143314E-04
       216 -1.735434E-07  4.985474E-04 -1.849758E-08
       217  1.570133E-05  4.878475E-04 -1.143027E-04
       218 -6.117697E-08  1.894294E-04  1.506509E-09
       250 -4.540502E-08  1.173369E-03 -6.313351E-05
       251  6.955896E-08  7.421863E-04  9.371678E-09