    1C
    1UUSER                                                              
    1UDATE              17.july.2018                                    
    1UTIME              21:48:59                                        
    1UHOST                                                              
    1UPGM               CalculiX                                        
    1UVERSION           Version 2.13                             
    1UCOMPILETIME       jue jun 14 00:40:39 CEST 2018                    
    1UDIR                                                               
    1UDBN                                                               
    1UMAT    1EL                                                        
    2C                           201                                     1
 -1         1 0.00000E+00 0.00000E+00 0.00000E+00
 -1         2 1.00000E+00 0.00000E+00 0.00000E+00
 -1         3 1.00000E+00 1.00000E+00 0.00000E+00
 -1         4 0.00000E+00 1.00000E+00 0.00000E+00
 -1         9 2.50000E-01 0.00000E+00 0.00000E+00
 -1        10 5.00000E-01 0.00000E+00 0.00000E+00
 -1        11 7.50000E-01 0.00000E+00 0.00000E+00
 -1        12 1.00000E+00 2.50000E-01 0.00000E+00
 -1        13 1.00000E+00 5.00000E-01 0.00000E+00
 -1        14 1.00000E+00 7.50000E-01 0.00000E+00
 -1        15 7.50000E-01 1.00000E+00 0.00000E+00
 -1        16 5.00000E-01 1.00000E+00 0.00000E+00
 -1        17 2.50000E-01 1.00000E+00 0.00000E+00
 -1        18 0.00000E+00 7.50000E-01 0.00000E+00
 -1        19 0.00000E+00 5.00000E-01 0.00000E+00
 -1        20 0.00000E+00 2.50000E-01 0.00000E+00
 -1        33 1.00000E+00 0.00000E+00 5.00000E-01
 -1        34 1.00000E+00 0.00000E+00 1.00000E+00
 -1        35 1.00000E+00 0.00000E+00 1.50000E+00
 -1        36 1.00000E+00 0.00000E+00 2.00000E+00
 -1        37 1.00000E+00 0.00000E+00 2.50000E+00
 -1        38 1.00000E+00 0.00000E+00 3.00000E+00
 -1        39 1.00000E+00 0.00000E+00 3.50000E+00
 -1        40 1.00000E+00 0.00000E+00 4.00000E+00
 -1        41 1.00000E+00 0.00000E+00 4.50000E+00
 -1        42 1.00000E+00 0.00000E+00 5.00000E+00
 -1        43 1.00000E+00 0.00000E+00 5.50000E+00
 -1        44 1.00000E+00 0.00000E+00 6.00000E+00
 -1        51 0.00000E+00 0.00000E+00 6.00000E+00
 -1        52 0.00000E+00 0.00000E+00 5.50000E+00
 -1        53 0.00000E+00 0.00000E+00 5.00000E+00
 -1        54 0.00000E+00 0.00000E+00 4.50000E+00
 -1        55 0.00000E+00 0.00000E+00 4.00000E+00
 -1        56 0.00000E+00 0.00000E+00 3.50000E+00
 -1        57 0.00000E+00 0.00000E+00 3.00000E+00
 -1        58 0.00000E+00 0.00000E+00 2.50000E+00
 -1        59 0.00000E+00 0.00000E+00 2.00000E+00
 -1        60 0.00000E+00 0.00000E+00 1.50000E+00
 -1        61 0.00000E+00 0.00000E+00 1.00000E+00
 -1        62 0.00000E+00 0.00000E+00 5.00000E-01
 -1        63 1.00000E+00 1.00000E+00 5.00000E-01
 -1        64 1.00000E+00 1.00000E+00 1.00000E+00
 -1        65 1.00000E+00 1.00000E+00 1.50000E+00
 -1        66 1.00000E+00 1.00000E+00 2.00000E+00
 -1        67 1.00000E+00 1.00000E+00 2.50000E+00
 -1        68 1.00000E+00 1.00000E+00 3.00000E+00
 -1        69 1.00000E+00 1.00000E+00 3.50000E+00
 -1        70 1.00000E+00 1.00000E+00 4.00000E+00
 -1        71 1.00000E+00 1.00000E+00 4.50000E+00
 -1        72 1.00000E+00 1.00000E+00 5.00000E+00
 -1        73 1.00000E+00 1.00000E+00 5.50000E+00
 -1        74 1.00000E+00 1.00000E+00 6.00000E+00
 -1        78 0.00000E+00 1.00000E+00 5.00000E-01
 -1        79 0.00000E+00 1.00000E+00 1.00000E+00
 -1        80 0.00000E+00 1.00000E+00 1.50000E+00
 -1        81 0.00000E+00 1.00000E+00 2.00000E+00
 -1        82 0.00000E+00 1.00000E+00 2.50000E+00
 -1        83 0.00000E+00 1.00000E+00 3.00000E+00
 -1        84 0.00000E+00 1.00000E+00 3.50000E+00
 -1        85 0.00000E+00 1.00000E+00 4.00000E+00
 -1        86 0.00000E+00 1.00000E+00 4.50000E+00
 -1        87 0.00000E+00 1.00000E+00 5.00000E+00
 -1        88 0.00000E+00 1.00000E+00 5.50000E+00
 -1        89 0.00000E+00 1.00000E+00 6.00000E+00
 -1        93 5.00000E-01 2.50000E-01 0.00000E+00
 -1        94 2.50000E-01 5.00000E-01 0.00000E+00
 -1        95 5.00000E-01 5.00000E-01 0.00000E+00
 -1        96 7.50000E-01 5.00000E-01 0.00000E+00
 -1        97 5.00000E-01 7.50000E-01 0.00000E+00
 -1       103 5.00000E-01 0.00000E+00 5.00000E-01
 -1       104 2.50000E-01 0.00000E+00 1.00000E+00
 -1       105 5.00000E-01 0.00000E+00 1.00000E+00
 -1       106 7.50000E-01 0.00000E+00 1.00000E+00
 -1       107 5.00000E-01 0.00000E+00 1.50000E+00
 -1       108 2.50000E-01 0.00000E+00 2.00000E+00
 -1       109 5.00000E-01 0.00000E+00 2.00000E+00
 -1       110 7.50000E-01 0.00000E+00 2.00000E+00
 -1       111 5.00000E-01 0.00000E+00 2.50000E+00
 -1       112 2.50000E-01 0.00000E+00 3.00000E+00
 -1       113 5.00000E-01 0.00000E+00 3.00000E+00
 -1       114 7.50000E-01 0.00000E+00 3.00000E+00
 -1       115 5.00000E-01 0.00000E+00 3.50000E+00
 -1       116 2.50000E-01 0.00000E+00 4.00000E+00
 -1       117 5.00000E-01 0.00000E+00 4.00000E+00
 -1       118 7.50000E-01 0.00000E+00 4.00000E+00
 -1       119 5.00000E-01 0.00000E+00 4.50000E+00
 -1       120 2.50000E-01 0.00000E+00 5.00000E+00
 -1       121 5.00000E-01 0.00000E+00 5.00000E+00
 -1       122 7.50000E-01 0.00000E+00 5.00000E+00
 -1       123 5.00000E-01 0.00000E+00 5.50000E+00
 -1       124 2.50000E-01 0.00000E+00 6.00000E+00
 -1       125 5.00000E-01 0.00000E+00 6.00000E+00
 -1       126 7.50000E-01 0.00000E+00 6.00000E+00
 -1       132 1.00000E+00 5.00000E-01 5.00000E-01
 -1       133 1.00000E+00 2.50000E-01 1.00000E+00
 -1       134 1.00000E+00 5.00000E-01 1.00000E+00
 -1       135 1.00000E+00 7.50000E-01 1.00000E+00
 -1       136 1.00000E+00 5.00000E-01 1.50000E+00
 -1       137 1.00000E+00 2.50000E-01 2.00000E+00
 -1       138 1.00000E+00 5.00000E-01 2.00000E+00
 -1       139 1.00000E+00 7.50000E-01 2.00000E+00
 -1       140 1.00000E+00 5.00000E-01 2.50000E+00
 -1       141 1.00000E+00 2.50000E-01 3.00000E+00
 -1       142 1.00000E+00 5.00000E-01 3.00000E+00
 -1       143 1.00000E+00 7.50000E-01 3.00000E+00
 -1       144 1.00000E+00 5.00000E-01 3.50000E+00
 -1       145 1.00000E+00 2.50000E-01 4.00000E+00
 -1       146 1.00000E+00 5.00000E-01 4.00000E+00
 -1       147 1.00000E+00 7.50000E-01 4.00000E+00
 -1       148 1.00000E+00 5.00000E-01 4.50000E+00
 -1       149 1.00000E+00 2.50000E-01 5.00000E+00
 -1       150 1.00000E+00 5.00000E-01 5.00000E+00
 -1       151 1.00000E+00 7.50000E-01 5.00000E+00
 -1       152 1.00000E+00 5.00000E-01 5.50000E+00
 -1       153 1.00000E+00 2.50000E-01 6.00000E+00
 -1       154 1.00000E+00 5.00000E-01 6.00000E+00
 -1       155 1.00000E+00 7.50000E-01 6.00000E+00
 -1       161 5.00000E-01 1.00000E+00 5.00000E-01
 -1       162 7.50000E-01 1.00000E+00 1.00000E+00
 -1       163 5.00000E-01 1.00000E+00 1.00000E+00
 -1       164 2.50000E-01 1.00000E+00 1.00000E+00
 -1       165 5.00000E-01 1.00000E+00 1.50000E+00
 -1       166 7.50000E-01 1.00000E+00 2.00000E+00
 -1       167 5.00000E-01 1.00000E+00 2.00000E+00
 -1       168 2.50000E-01 1.00000E+00 2.00000E+00
 -1       169 5.00000E-01 1.00000E+00 2.50000E+00
 -1       170 7.50000E-01 1.00000E+00 3.00000E+00
 -1       171 5.00000E-01 1.00000E+00 3.00000E+00
 -1       172 2.50000E-01 1.00000E+00 3.00000E+00
 -1       173 5.00000E-01 1.00000E+00 3.50000E+00
 -1       174 7.50000E-01 1.00000E+00 4.00000E+00
 -1       175 5.00000E-01 1.00000E+00 4.00000E+00
 -1       176 2.50000E-01 1.00000E+00 4.00000E+00
 -1       177 5.00000E-01 1.00000E+00 4.50000E+00
 -1       178 7.50000E-01 1.00000E+00 5.00000E+00
 -1       179 5.00000E-01 1.00000E+00 5.00000E+00
 -1       180 2.50000E-01 1.00000E+00 5.00000E+00
 -1       181 5.00000E-01 1.00000E+00 5.50000E+00
 -1       182 7.50000E-01 1.00000E+00 6.00000E+00
 -1       183 5.00000E-01 1.00000E+00 6.00000E+00
 -1       184 2.50000E-01 1.00000E+00 6.00000E+00
 -1       190 0.00000E+00 5.00000E-01 5.00000E-01
 -1       191 0.00000E+00 7.50000E-01 1.00000E+00
 -1       192 0.00000E+00 5.00000E-01 1.00000E+00
 -1       193 0.00000E+00 2.50000E-01 1.00000E+00
 -1       194 0.00000E+00 5.00000E-01 1.50000E+00
 -1       195 0.00000E+00 7.50000E-01 2.00000E+00
 -1       196 0.00000E+00 5.00000E-01 2.00000E+00
 -1       197 0.00000E+00 2.50000E-01 2.00000E+00
 -1       198 0.00000E+00 5.00000E-01 2.50000E+00
 -1       199 0.00000E+00 7.50000E-01 3.00000E+00
 -1       200 0.00000E+00 5.00000E-01 3.00000E+00
 -1       201 0.00000E+00 2.50000E-01 3.00000E+00
 -1       202 0.00000E+00 5.00000E-01 3.50000E+00
 -1       203 0.00000E+00 7.50000E-01 4.00000E+00
 -1       204 0.00000E+00 5.00000E-01 4.00000E+00
 -1       205 0.00000E+00 2.50000E-01 4.00000E+00
 -1       206 0.00000E+00 5.00000E-01 4.50000E+00
 -1       207 0.00000E+00 7.50000E-01 5.00000E+00
 -1       208 0.00000E+00 5.00000E-01 5.00000E+00
 -1       209 0.00000E+00 2.50000E-01 5.00000E+00
 -1       210 0.00000E+00 5.00000E-01 5.50000E+00
 -1       211 0.00000E+00 7.50000E-01 6.00000E+00
 -1       212 0.00000E+00 5.00000E-01 6.00000E+00
 -1       213 0.00000E+00 2.50000E-01 6.00000E+00
 -1       219 5.00000E-01 5.00000E-01 5.00000E-01
 -1       220 5.00000E-01 2.50000E-01 1.00000E+00
 -1       221 2.50000E-01 5.00000E-01 1.00000E+00
 -1       222 5.00000E-01 5.00000E-01 1.00000E+00
 -1       223 7.50000E-01 5.00000E-01 1.00000E+00
 -1       224 5.00000E-01 7.50000E-01 1.00000E+00
 -1       225 5.00000E-01 5.00000E-01 1.50000E+00
 -1       226 5.00000E-01 2.50000E-01 2.00000E+00
 -1       227 2.50000E-01 5.00000E-01 2.00000E+00
 -1       228 5.00000E-01 5.00000E-01 2.00000E+00
 -1       229 7.50000E-01 5.00000E-01 2.00000E+00
 -1       230 5.00000E-01 7.50000E-01 2.00000E+00
 -1       231 5.00000E-01 5.00000E-01 2.50000E+00
 -1       232 5.00000E-01 2.50000E-01 3.00000E+00
 -1       233 2.50000E-01 5.00000E-01 3.00000E+00
 -1       234 5.00000E-01 5.00000E-01 3.00000E+00
 -1       235 7.50000E-01 5.00000E-01 3.00000E+00
 -1       236 5.00000E-01 7.50000E-01 3.00000E+00
 -1       237 5.00000E-01 5.00000E-01 3.50000E+00
 -1       238 5.00000E-01 2.50000E-01 4.00000E+00
 -1       239 2.50000E-01 5.00000E-01 4.00000E+00
 -1       240 5.00000E-01 5.00000E-01 4.00000E+00
 -1       241 7.50000E-01 5.00000E-01 4.00000E+00
 -1       242 5.00000E-01 7.50000E-01 4.00000E+00
 -1       243 5.00000E-01 5.00000E-01 4.50000E+00
 -1       244 5.00000E-01 2.50000E-01 5.00000E+00
 -1       245 2.50000E-01 5.00000E-01 5.00000E+00
 -1       246 5.00000E-01 5.00000E-01 5.00000E+00
 -1       247 7.50000E-01 5.00000E-01 5.00000E+00
 -1       248 5.00000E-01 7.50000E-01 5.00000E+00
 -1       249 5.00000E-01 5.00000E-01 5.50000E+00
 -1       250 5.00000E-01 2.50000E-01 6.00000E+00
 -1       251 2.50000E-01 5.00000E-01 6.00000E+00
 -1       252 5.00000E-01 5.00000E-01 6.00000E+00
 -1       253 7.50000E-01 5.00000E-01 6.00000E+00
 -1       254 5.00000E-01 7.50000E-01 6.00000E+00
 -3
    3C                            24                                     1
 -1         1    4    0    1
 -2         1        10        95        19        61       105       222       192         9        93
 -2        94        20        62       103       219       190       104       220       221       193
 -1         2    4    0    1
 -2        10         2        13        95       105        34       134       222        11        12
 -2        96        93       103        33       132       219       106       133       223       220
 -1         3    4    0    1
 -2        19        95        16         4       192       222       163        79        94        97
 -2        17        18       190       219       161        78       221       224       164       191
 -1         4    4    0    1
 -2        95        13         3        16       222       134        64       163        96        14
 -2        15        97       219       132        63       161       223       135       162       224
 -1         5    4    0    1
 -2        61       105       222       192        59       109       228       196       104       220
 -2       221       193        60       107       225       194       108       226       227       197
 -1         6    4    0    1
 -2       105        34       134       222       109        36       138       228       106       133
 -2       223       220       107        35       136       225       110       137       229       226
 -1         7    4    0    1
 -2       192       222       163        79       196       228       167        81       221       224
 -2       164       191       194       225       165        80       227       230       168       195
 -1         8    4    0    1
 -2       222       134        64       163       228       138        66       167       223       135
 -2       162       224       225       136        65       165       229       139       166       230
 -1         9    4    0    1
 -2        59       109       228       196        57       113       234       200       108       226
 -2       227       197        58       111       231       198       112       232       233       201
 -1        10    4    0    1
 -2       109        36       138       228       113        38       142       234       110       137
 -2       229       226       111        37       140       231       114       141       235       232
 -1        11    4    0    1
 -2       196       228       167        81       200       234       171        83       227       230
 -2       168       195       198       231       169        82       233       236       172       199
 -1        12    4    0    1
 -2       228       138        66       167       234       142        68       171       229       139
 -2       166       230       231       140        67       169       235       143       170       236
 -1        13    4    0    1
 -2        57       113       234       200        55       117       240       204       112       232
 -2       233       201        56       115       237       202       116       238       239       205
 -1        14    4    0    1
 -2       113        38       142       234       117        40       146       240       114       141
 -2       235       232       115        39       144       237       118       145       241       238
 -1        15    4    0    1
 -2       200       234       171        83       204       240       175        85       233       236
 -2       172       199       202       237       173        84       239       242       176       203
 -1        16    4    0    1
 -2       234       142        68       171       240       146        70       175       235       143
 -2       170       236       237       144        69       173       241       147       174       242
 -1        17    4    0    1
 -2        55       117       240       204        53       121       246       208       116       238
 -2       239       205        54       119       243       206       120       244       245       209
 -1        18    4    0    1
 -2       117        40       146       240       121        42       150       246       118       145
 -2       241       238       119        41       148       243       122       149       247       244
 -1        19    4    0    1
 -2       204       240       175        85       208       246       179        87       239       242
 -2       176       203       206       243       177        86       245       248       180       207
 -1        20    4    0    1
 -2       240       146        70       175       246       150        72       179       241       147
 -2       174       242       243       148        71       177       247       151       178       248
 -1        21    4    0    1
 -2        53       121       246       208        51       125       252       212       120       244
 -2       245       209        52       123       249       210       124       250       251       213
 -1        22    4    0    1
 -2       121        42       150       246       125        44       154       252       122       149
 -2       247       244       123        43       152       249       126       153       253       250
 -1        23    4    0    1
 -2       208       246       179        87       212       252       183        89       245       248
 -2       180       207       210       249       181        88       251       254       184       211
 -1        24    4    0    1
 -2       246       150        72       179       252       154        74       183       247       151
 -2       178       248       249       152        73       181       253       155       182       254
 -3
    1PSTEP                         1           1           1          
  100CL  101 5.00000E-03         201                     1    1           1
 -4  DISP        4    1
 -5  D1          1    2    1    0
 -5  D2          1    2    2    0
 -5  D3          1    2    3    0
 -5  ALL         1    2    0    0    1ALL
 -1         1 0.00000E+00 0.00000E+00 0.00000E+00
 -1         2 0.00000E+00 0.00000E+00 0.00000E+00
 -1         3 0.00000E+00 0.00000E+00 0.00000E+00
 -1         4 0.00000E+00 0.00000E+00 0.00000E+00
 -1         9 0.00000E+00 0.00000E+00 0.00000E+00
 -1        10 0.00000E+00 0.00000E+00 0.00000E+00
 -1        11 0.00000E+00 0.00000E+00 0.00000E+00
 -1        12 0.00000E+00 0.00000E+00 0.00000E+00
 -1        13 0.00000E+00 0.00000E+00 0.00000E+00
 -1        14 0.00000E+00 0.00000E+00 0.00000E+00
 -1        15 0.00000E+00 0.00000E+00 0.00000E+00
 -1        16 0.00000E+00 0.00000E+00 0.00000E+00
 -1        17 0.00000E+00 0.00000E+00 0.00000E+00
 -1        18 0.00000E+00 0.00000E+00 0.00000E+00
 -1        19 0.00000E+00 0.00000E+00 0.00000E+00
 -1        20 0.00000E+00 0.00000E+00 0.00000E+00
 -1        33 6.38584E-05-1.55678E-04-2.04558E-04
 -1        34 3.13879E-05-4.81951E-04-3.74476E-04
 -1        35 2.58656E-05-9.70998E-04-4.84084E-04
 -1        36 8.29036E-06-1.52864E-03-5.41131E-04
 -1        37-4.97399E-06-2.11239E-03-5.47969E-04
 -1        38-2.08618E-05-2.69517E-03-5.19267E-04
 -1        39-4.22794E-05-3.19646E-03-3.85030E-04
 -1        40-4.28489E-05-3.54421E-03-2.09699E-04
 -1        41-4.40656E-05-3.58217E-03-6.38721E-05
 -1        42-6.07298E-05-3.74086E-03-1.47951E-04
 -1        43 6.20261E-05-3.47429E-03 8.48492E-05
 -1        44-6.07060E-05-3.46722E-03 4.48538E-04
 -1        51 6.12168E-05-3.46731E-03 4.48366E-04
 -1        52-6.14679E-05-3.47446E-03 8.47339E-05
 -1        53 6.14697E-05-3.74104E-03-1.47964E-04
 -1        54 4.47032E-05-3.58235E-03-6.38753E-05
 -1        55 4.35078E-05-3.54436E-03-2.09671E-04
 -1        56 4.28459E-05-3.19660E-03-3.84984E-04
 -1        57 2.13579E-05-2.69528E-03-5.19199E-04
 -1        58 5.35957E-06-2.11248E-03-5.47895E-04
 -1        59-7.99866E-06-1.52870E-03-5.41056E-04
 -1        60-2.56741E-05-9.71047E-04-4.84016E-04
 -1        61-3.12833E-05-4.81980E-04-3.74423E-04
 -1        62-6.38204E-05-1.55684E-04-2.04529E-04
 -1        63-6.26563E-05-1.53932E-04 2.01084E-04
 -1        64-3.11532E-05-4.81383E-04 3.67035E-04
 -1        65-2.33768E-05-9.70528E-04 4.73668E-04
 -1        66-7.84554E-06-1.53513E-03 5.27283E-04
 -1        67 5.11257E-06-2.10263E-03 5.30909E-04
 -1        68 1.47125E-05-2.69568E-03 4.93952E-04
 -1        69 5.88465E-05-3.20715E-03 3.58265E-04
 -1        70 6.62260E-05-3.63558E-03 1.84437E-04
 -1        71-5.31042E-06-3.45987E-03 3.32245E-05
 -1        72-1.04935E-04-3.47784E-03 7.88043E-05
 -1        73 2.03642E-04-3.89016E-03-1.67976E-04
 -1        74 3.19889E-04-4.41478E-03-4.94713E-04
 -1        78 6.26638E-05-1.53957E-04 2.01113E-04
 -1        79 3.11889E-05-4.81420E-04 3.67088E-04
 -1        80 2.34655E-05-9.70583E-04 4.73736E-04
 -1        81 7.99337E-06-1.53520E-03 5.27358E-04
 -1        82-4.89509E-06-2.10272E-03 5.30984E-04
 -1        83-1.44421E-05-2.69578E-03 4.94017E-04
 -1        84-5.85298E-05-3.20728E-03 3.58312E-04
 -1        85-6.59029E-05-3.63573E-03 1.84453E-04
 -1        86 5.66338E-06-3.46001E-03 3.32268E-05
 -1        87 1.05247E-04-3.47801E-03 7.87778E-05
 -1        88-2.03379E-04-3.89032E-03-1.68057E-04
 -1        89-3.19773E-04-4.41508E-03-4.94888E-04
 -1        93 0.00000E+00 0.00000E+00 0.00000E+00
 -1        94 0.00000E+00 0.00000E+00 0.00000E+00
 -1        95 0.00000E+00 0.00000E+00 0.00000E+00
 -1        96 0.00000E+00 0.00000E+00 0.00000E+00
 -1        97 0.00000E+00 0.00000E+00 0.00000E+00
 -1       103 1.69717E-08-1.81959E-04-2.00749E-04
 -1       104-1.55731E-05-5.01420E-04-3.80359E-04
 -1       105 5.09765E-08-5.03956E-04-3.83018E-04
 -1       106 1.56753E-05-5.01405E-04-3.80381E-04
 -1       107 9.51882E-08-9.81092E-04-4.86760E-04
 -1       108-3.16304E-06-1.53093E-03-5.44791E-04
 -1       109 1.42807E-07-1.54159E-03-5.43744E-04
 -1       110 3.45173E-06-1.53089E-03-5.44826E-04
 -1       111 1.95925E-07-2.10354E-03-5.51734E-04
 -1       112 7.78515E-06-2.71943E-03-5.21417E-04
 -1       113 2.39331E-07-2.71277E-03-5.23060E-04
 -1       114-7.29752E-06-2.71938E-03-5.21444E-04
 -1       115 2.90618E-07-3.15811E-03-3.93394E-04
 -1       116 3.32437E-05-3.52094E-03-2.04132E-04
 -1       117 3.06208E-07-3.64341E-03-1.83339E-04
 -1       118-3.26060E-05-3.52087E-03-2.04149E-04
 -1       119 3.43087E-07-3.55549E-03-6.59084E-05
 -1       120-6.28085E-06-3.91210E-03-1.12794E-04
 -1       121 2.97326E-07-3.76670E-03-1.17820E-04
 -1       122 6.94418E-06-3.91202E-03-1.12760E-04
 -1       123 3.23561E-07-3.48382E-03-2.48969E-05
 -1       124 1.47845E-04-2.96671E-03 4.29852E-04
 -1       125 7.51173E-08-3.58793E-03 4.48521E-04
 -1       126-1.47485E-04-2.96666E-03 4.29844E-04
 -1       132 7.32531E-07-1.18683E-04-1.61723E-06
 -1       133 1.61816E-05-4.69703E-04-1.78074E-04
 -1       134 9.28602E-07-4.74429E-04-2.91165E-06
 -1       135-1.53669E-05-4.69806E-04 1.71184E-04
 -1       136-9.21196E-08-9.53431E-04-5.62357E-06
 -1       137 4.93595E-06-1.52676E-03-2.68706E-04
 -1       138 6.29156E-07-1.51901E-03-7.40837E-06
 -1       139-3.57077E-06-1.52846E-03 2.55161E-04
 -1       140 1.84985E-06-2.12645E-03-9.23772E-06
 -1       141-1.02373E-05-2.68078E-03-2.44431E-04
 -1       142 5.72806E-06-2.68740E-03-5.16470E-06
 -1       143 1.14750E-05-2.68696E-03 2.24160E-04
 -1       144-8.67723E-06-3.22037E-03-1.27460E-05
 -1       145-2.00118E-05-3.56331E-03-1.32035E-04
 -1       146-1.27231E-05-3.46667E-03-2.48443E-05
 -1       147 1.83362E-05-3.58753E-03 1.00630E-04
 -1       148 2.73264E-05-3.68223E-03-2.37620E-05
 -1       149-3.23694E-05-3.42345E-03-4.68806E-05
 -1       150 8.55058E-05-3.45099E-03-1.99763E-06
 -1       151 2.85350E-05-3.35554E-03-1.15826E-07
 -1       152-1.26763E-04-3.72130E-03 1.17196E-05
 -1       153 7.01140E-05-3.63725E-03 1.91450E-04
 -1       154-1.19940E-04-2.50689E-03-2.09126E-05
 -1       155-6.54930E-05-3.89096E-03-2.38213E-04
 -1       161 4.88690E-10-1.80750E-04 1.97013E-04
 -1       162-1.53515E-05-5.00758E-04 3.73599E-04
 -1       163 1.81110E-08-5.01499E-04 3.75790E-04
 -1       164 1.53863E-05-5.00777E-04 3.73628E-04
 -1       165 4.28273E-08-9.81150E-04 4.76678E-04
 -1       166-3.88018E-06-1.52825E-03 5.30654E-04
 -1       167 7.60185E-08-1.53753E-03 5.32915E-04
 -1       168 4.03032E-06-1.52828E-03 5.30692E-04
 -1       169 1.07392E-07-2.10440E-03 5.30953E-04
 -1       170 7.69560E-06-2.71930E-03 5.01334E-04
 -1       171 1.40073E-07-2.68141E-03 4.96962E-04
 -1       172-7.42068E-06-2.71935E-03 5.01369E-04
 -1       173 1.58126E-07-3.17875E-03 3.68952E-04
 -1       174 3.15061E-05-3.46249E-03 1.71038E-04
 -1       175 1.76205E-07-3.56271E-03 1.72780E-04
 -1       176-3.11641E-05-3.46256E-03 1.71045E-04
 -1       177 1.67019E-07-3.51243E-03 2.08092E-05
 -1       178-4.42110E-05-4.00926E-03 7.14545E-05
 -1       179 1.76406E-07-3.58054E-03 4.81531E-05
 -1       180 4.45326E-05-4.00937E-03 7.14460E-05
 -1       181 1.34785E-07-3.68393E-03-6.17169E-05
 -1       182 1.13259E-04-2.56276E-03-4.71327E-04
 -1       183 1.79324E-07-4.35460E-03-4.76881E-04
 -1       184-1.12977E-04-2.56283E-03-4.71435E-04
 -1       190-7.06176E-07-1.18700E-04-1.58858E-06
 -1       191 1.54227E-05-4.69841E-04 1.71234E-04
 -1       192-8.54797E-07-4.74463E-04-2.85697E-06
 -1       193-1.60913E-05-4.69734E-04-1.78016E-04
 -1       194 2.33127E-07-9.53483E-04-5.55544E-06
 -1       195 3.75597E-06-1.52853E-03 2.55235E-04
 -1       196-4.06119E-07-1.51908E-03-7.33237E-06
 -1       197-4.67851E-06-1.52683E-03-2.68627E-04
 -1       198-1.55139E-06-2.12653E-03-9.16336E-06
 -1       199-1.11459E-05-2.68706E-03 2.24223E-04
 -1       200-5.34105E-06-2.68750E-03-5.09474E-06
 -1       201 1.06782E-05-2.68089E-03-2.44358E-04
 -1       202 9.11344E-06-3.22050E-03-1.27015E-05
 -1       203-1.79261E-05-3.58768E-03 1.00654E-04
 -1       204 1.32278E-05-3.46682E-03-2.48221E-05
 -1       205 2.05933E-05-3.56346E-03-1.32011E-04
 -1       206-2.68539E-05-3.68239E-03-2.37610E-05
 -1       207-2.80954E-05-3.35571E-03-1.52859E-07
 -1       208-8.49550E-05-3.45115E-03-1.98330E-06
 -1       209 3.30108E-05-3.42362E-03-4.68653E-05
 -1       210 1.27172E-04-3.72145E-03 1.15914E-05
 -1       211 6.57534E-05-3.89118E-03-2.38275E-04
 -1       212 1.20400E-04-2.50706E-03-2.11217E-05
 -1       213-6.96194E-05-3.63739E-03 1.91186E-04
 -1       219 1.06434E-08-1.44480E-04-1.43213E-06
 -1       220 4.37344E-08-4.89547E-04-1.83698E-04
 -1       221-3.80564E-07-4.91083E-04-3.63148E-06
 -1       222 3.53976E-08-4.92464E-04-3.80897E-06
 -1       223 4.51736E-07-4.91066E-04-3.65736E-06
 -1       224 2.73200E-08-4.88171E-04 1.76719E-04
 -1       225 7.01447E-08-9.65647E-04-5.14192E-06
 -1       226 1.25515E-07-1.53434E-03-2.72982E-04
 -1       227-2.55464E-07-1.52025E-03-6.86551E-06
 -1       228 1.08354E-07-1.52205E-03-8.46830E-06
 -1       229 4.75332E-07-1.52022E-03-6.90299E-06
 -1       230 9.20215E-08-1.53269E-03 2.57747E-04
 -1       231 1.52228E-07-2.12513E-03-7.49607E-06
 -1       232 2.12480E-07-2.68877E-03-2.49432E-04
 -1       233-2.03796E-06-2.68460E-03-1.27168E-05
 -1       234 1.85644E-07-2.68158E-03-1.40145E-05
 -1       235 2.41747E-06-2.68454E-03-1.27485E-05
 -1       236 1.63307E-07-2.67158E-03 2.27133E-04
 -1       237 2.24850E-07-3.19296E-03-9.38132E-06
 -1       238 2.67297E-07-3.61216E-03-1.24233E-04
 -1       239 6.03005E-06-3.45430E-03-1.44163E-05
 -1       240 2.31394E-07-3.47788E-03-2.01032E-05
 -1       241-5.54436E-06-3.45423E-03-1.44347E-05
 -1       242 2.00815E-07-3.57480E-03 8.84724E-05
 -1       243 2.59094E-07-3.65690E-03-2.12794E-05
 -1       244 2.59102E-07-3.52118E-03-2.05217E-05
 -1       245-3.36294E-05-3.61259E-03-2.62888E-05
 -1       246 2.16211E-07-3.65182E-03-1.98592E-05
 -1       247 3.41169E-05-3.61250E-03-2.62634E-05
 -1       248 2.05801E-07-3.43724E-03-1.01388E-05
 -1       249 2.37797E-07-3.52411E-03-1.34807E-05
 -1       250 6.87979E-08-4.08076E-03 1.74368E-04
 -1       251 3.08043E-05-2.57282E-03-1.06195E-05
 -1       252 8.28465E-08-3.12046E-03-1.59787E-05
 -1       253-3.04601E-05-2.57280E-03-1.06278E-05
 -1       254 8.94059E-08-4.41185E-03-2.54363E-04
 -3
    1PSTEP                         2           2           1          
  100CL  102 1.00000E-02         201                     1    2           1
 -4  DISP        4    1
 -5  D1          1    2    1    0
 -5  D2          1    2    2    0
 -5  D3          1    2    3    0
 -5  ALL         1    2    0    0    1ALL
 -1         1 0.00000E+00 0.00000E+00 0.00000E+00
 -1         2 0.00000E+00 0.00000E+00 0.00000E+00
 -1         3 0.00000E+00 0.00000E+00 0.00000E+00
 -1         4 0.00000E+00 0.00000E+00 0.00000E+00
 -1         9 0.00000E+00 0.00000E+00 0.00000E+00
 -1        10 0.00000E+00 0.00000E+00 0.00000E+00
 -1        11 0.00000E+00 0.00000E+00 0.00000E+00
 -1        12 0.00000E+00 0.00000E+00 0.00000E+00
 -1        13 0.00000E+00 0.00000E+00 0.00000E+00
 -1        14 0.00000E+00 0.00000E+00 0.00000E+00
 -1        15 0.00000E+00 0.00000E+00 0.00000E+00
 -1        16 0.00000E+00 0.00000E+00 0.00000E+00
 -1        17 0.00000E+00 0.00000E+00 0.00000E+00
 -1        18 0.00000E+00 0.00000E+00 0.00000E+00
 -1        19 0.00000E+00 0.00000E+00 0.00000E+00
 -1        20 0.00000E+00 0.00000E+00 0.00000E+00
 -1        33-3.20053E-05 7.91792E-05 1.03020E-04
 -1        34-1.55109E-05 2.44816E-04 1.87760E-04
 -1        35-1.28158E-05 4.92567E-04 2.42755E-04
 -1        36-4.61066E-06 7.74310E-04 2.70084E-04
 -1        37 4.20005E-06 1.07188E-03 2.71886E-04
 -1        38 1.33986E-05 1.36764E-03 2.50331E-04
 -1        39 2.04462E-05 1.60875E-03 1.85237E-04
 -1        40 1.35752E-05 1.78306E-03 9.24027E-05
 -1        41 3.52024E-05 1.81782E-03 2.08001E-05
 -1        42 4.54611E-05 1.87283E-03 1.10329E-05
 -1        43-4.06583E-05 1.69549E-03-7.83952E-05
 -1        44-1.55574E-04 1.60338E-03-2.34023E-04
 -1        51 1.54886E-04 1.60396E-03-2.33913E-04
 -1        52 4.00203E-05 1.69558E-03-7.83085E-05
 -1        53-4.58504E-05 1.87287E-03 1.09976E-05
 -1        54-3.56755E-05 1.81785E-03 2.07400E-05
 -1        55-1.39882E-05 1.78312E-03 9.23802E-05
 -1        56-2.08435E-05 1.60879E-03 1.85189E-04
 -1        57-1.36912E-05 1.36767E-03 2.50274E-04
 -1        58-4.44522E-06 1.07190E-03 2.71822E-04
 -1        59 4.44337E-06 7.74327E-04 2.70029E-04
 -1        60 1.27022E-05 4.92576E-04 2.42704E-04
 -1        61 1.54573E-05 2.44822E-04 1.87723E-04
 -1        62 3.19858E-05 7.91761E-05 1.02999E-04
 -1        63 3.19858E-05 7.91608E-05-1.02981E-04
 -1        64 1.54685E-05 2.44806E-04-1.87684E-04
 -1        65 1.26919E-05 4.92572E-04-2.42650E-04
 -1        66 4.44167E-06 7.74362E-04-2.69956E-04
 -1        67-4.38371E-06 1.07178E-03-2.71733E-04
 -1        68-1.35397E-05 1.36756E-03-2.50140E-04
 -1        69-2.10675E-05 1.60898E-03-1.85053E-04
 -1        70-1.43725E-05 1.78388E-03-9.22508E-05
 -1        71-3.47258E-05 1.81650E-03-2.05800E-05
 -1        72-4.32177E-05 1.86977E-03-1.06343E-05
 -1        73 3.57528E-05 1.70062E-03 7.87238E-05
 -1        74 1.48628E-04 1.61406E-03 2.34145E-04
 -1        78-3.19980E-05 7.91710E-05-1.03002E-04