    1C
    1UUSER                                                              
    1UDATE              17.july.2018                                    
    1UTIME              21:39:48                                        
    1UHOST                                                              
    1UPGM               CalculiX                                        
    1UVERSION           Version 2.13                             
    1UCOMPILETIME       jue jun 14 00:40:39 CEST 2018                    
    1UDIR                                                               
    1UDBN                                                               
    1UMAT    1EL                                                        
    2C                           201                                     1
 -1         1 0.00000E+00 0.00000E+00 0.00000E+00
 -1         2 1.00000E+00 0.00000E+00 0.00000E+00
 -1         3 1.00000E+00 1.00000E+00 0.00000E+00
 -1         4 0.00000E+00 1.00000E+00 0.00000E+00
 -1         9 2.50000E-01 0.00000E+00 0.00000E+00
 -1        10 5.00000E-01 0.00000E+00 0.00000E+00
 -1        11 7.50000E-01 0.00000E+00 0.00000E+00
 -1        12 1.00000E+00 2.50000E-01 0.00000E+00
 -1        13 1.00000E+00 5.00000E-01 0.00000E+00
 -1        14 1.00000E+00 7.50000E-01 0.00000E+00
 -1        15 7.50000E-01 1.00000E+00 0.00000E+00
 -1        16 5.00000E-01 1.00000E+00 0.00000E+00
 -1        17 2.50000E-01 1.00000E+00 0.00000E+00
 -1        18 0.00000E+00 7.50000E-01 0.00000E+00
 -1        19 0.00000E+00 5.00000E-01 0.00000E+00
 -1        20 0.00000E+00 2.50000E-01 0.00000E+00
 -1        33 1.00000E+00 0.00000E+00 5.00000E-01
 -1        34 1.00000E+00 0.00000E+00 1.00000E+00
 -1        35 1.00000E+00 0.00000E+00 1.50000E+00
 -1        36 1.00000E+00 0.00000E+00 2.00000E+00
 -1        37 1.00000E+00 0.00000E+00 2.50000E+00
 -1        38 1.00000E+00 0.00000E+00 3.00000E+00
 -1        39 1.00000E+00 0.00000E+00 3.50000E+00
 -1        40 1.00000E+00 0.00000E+00 4.00000E+00
 -1        41 1.00000E+00 0.00000E+00 4.50000E+00
 -1        42 1.00000E+00 0.00000E+00 5.00000E+00
 -1        43 1.00000E+00 0.00000E+00 5.50000E+00
 -1        44 1.00000E+00 0.00000E+00 6.00000E+00
 -1        51 0.00000E+00 0.00000E+00 6.00000E+00
 -1        52 0.00000E+00 0.00000E+00 5.50000E+00
 -1        53 0.00000E+00 0.00000E+00 5.00000E+00
 -1        54 0.00000E+00 0.00000E+00 4.50000E+00
 -1        55 0.00000E+00 0.00000E+00 4.00000E+00
 -1        56 0.00000E+00 0.00000E+00 3.50000E+00
 -1        57 0.00000E+00 0.00000E+00 3.00000E+00
 -1        58 0.00000E+00 0.00000E+00 2.50000E+00
 -1        59 0.00000E+00 0.00000E+00 2.00000E+00
 -1        60 0.00000E+00 0.00000E+00 1.50000E+00
 -1        61 0.00000E+00 0.00000E+00 1.00000E+00
 -1        62 0.00000E+00 0.00000E+00 5.00000E-01
 -1        63 1.00000E+00 1.00000E+00 5.00000E-01
 -1        64 1.00000E+00 1.00000E+00 1.00000E+00
 -1        65 1.00000E+00 1.00000E+00 1.50000E+00
 -1        66 1.00000E+00 1.00000E+00 2.00000E+00
 -1        67 1.00000E+00 1.00000E+00 2.50000E+00
 -1        68 1.00000E+00 1.00000E+00 3.00000E+00
 -1        69 1.00000E+00 1.00000E+00 3.50000E+00
 -1        70 1.00000E+00 1.00000E+00 4.00000E+00
 -1        71 1.00000E+00 1.00000E+00 4.50000E+00
 -1        72 1.00000E+00 1.00000E+00 5.00000E+00
 -1        73 1.00000E+00 1.00000E+00 5.50000E+00
 -1        74 1.00000E+00 1.00000E+00 6.00000E+00
 -1        78 0.00000E+00 1.00000E+00 5.00000E-01
 -1        79 0.00000E+00 1.00000E+00 1.00000E+00
 -1        80 0.00000E+00 1.00000E+00 1.50000E+00
 -1        81 0.00000E+00 1.00000E+00 2.00000E+00
 -1        82 0.00000E+00 1.00000E+00 2.50000E+00
 -1        83 0.00000E+00 1.00000E+00 3.00000E+00
 -1        84 0.00000E+00 1.00000E+00 3.50000E+00
 -1        85 0.00000E+00 1.00000E+00 4.00000E+00
 -1        86 0.00000E+00 1.00000E+00 4.50000E+00
 -1        87 0.00000E+00 1.00000E+00 5.00000E+00
 -1        88 0.00000E+00 1.00000E+00 5.50000E+00
 -1        89 0.00000E+00 1.00000E+00 6.00000E+00
 -1        93 5.00000E-01 2.50000E-01 0.00000E+00
 -1        94 2.50000E-01 5.00000E-01 0.00000E+00
 -1        95 5.00000E-01 5.00000E-01 0.00000E+00
 -1        96 7.50000E-01 5.00000E-01 0.00000E+00
 -1        97 5.00000E-01 7.50000E-01 0.00000E+00
 -1       103 5.00000E-01 0.00000E+00 5.00000E-01
 -1       104 2.50000E-01 0.00000E+00 1.00000E+00
 -1       105 5.00000E-01 0.00000E+00 1.00000E+00
 -1       106 7.50000E-01 0.00000E+00 1.00000E+00
 -1       107 5.00000E-01 0.00000E+00 1.50000E+00
 -1       108 2.50000E-01 0.00000E+00 2.00000E+00
 -1       109 5.00000E-01 0.00000E+00 2.00000E+00
 -1       110 7.50000E-01 0.00000E+00 2.00000E+00
 -1       111 5.00000E-01 0.00000E+00 2.50000E+00
 -1       112 2.50000E-01 0.00000E+00 3.00000E+00
 -1       113 5.00000E-01 0.00000E+00 3.00000E+00
 -1       114 7.50000E-01 0.00000E+00 3.00000E+00
 -1       115 5.00000E-01 0.00000E+00 3.50000E+00
 -1       116 2.50000E-01 0.00000E+00 4.00000E+00
 -1       117 5.00000E-01 0.00000E+00 4.00000E+00
 -1       118 7.50000E-01 0.00000E+00 4.00000E+00
 -1       119 5.00000E-01 0.00000E+00 4.50000E+00
 -1       120 2.50000E-01 0.00000E+00 5.00000E+00
 -1       121 5.00000E-01 0.00000E+00 5.00000E+00
 -1       122 7.50000E-01 0.00000E+00 5.00000E+00
 -1       123 5.00000E-01 0.00000E+00 5.50000E+00
 -1       124 2.50000E-01 0.00000E+00 6.00000E+00
 -1       125 5.00000E-01 0.00000E+00 6.00000E+00
 -1       126 7.50000E-01 0.00000E+00 6.00000E+00
 -1       132 1.00000E+00 5.00000E-01 5.00000E-01
 -1       133 1.00000E+00 2.50000E-01 1.00000E+00
 -1       134 1.00000E+00 5.00000E-01 1.00000E+00
 -1       135 1.00000E+00 7.50000E-01 1.00000E+00
 -1       136 1.00000E+00 5.00000E-01 1.50000E+00
 -1       137 1.00000E+00 2.50000E-01 2.00000E+00
 -1       138 1.00000E+00 5.00000E-01 2.00000E+00
 -1       139 1.00000E+00 7.50000E-01 2.00000E+00
 -1       140 1.00000E+00 5.00000E-01 2.50000E+00
 -1       141 1.00000E+00 2.50000E-01 3.00000E+00
 -1       142 1.00000E+00 5.00000E-01 3.00000E+00
 -1       143 1.00000E+00 7.50000E-01 3.00000E+00
 -1       144 1.00000E+00 5.00000E-01 3.50000E+00
 -1       145 1.00000E+00 2.50000E-01 4.00000E+00
 -1       146 1.00000E+00 5.00000E-01 4.00000E+00
 -1       147 1.00000E+00 7.50000E-01 4.00000E+00
 -1       148 1.00000E+00 5.00000E-01 4.50000E+00
 -1       149 1.00000E+00 2.50000E-01 5.00000E+00
 -1       150 1.00000E+00 5.00000E-01 5.00000E+00
 -1       151 1.00000E+00 7.50000E-01 5.00000E+00
 -1       152 1.00000E+00 5.00000E-01 5.50000E+00
 -1       153 1.00000E+00 2.50000E-01 6.00000E+00
 -1       154 1.00000E+00 5.00000E-01 6.00000E+00
 -1       155 1.00000E+00 7.50000E-01 6.00000E+00
 -1       161 5.00000E-01 1.00000E+00 5.00000E-01
 -1       162 7.50000E-01 1.00000E+00 1.00000E+00
 -1       163 5.00000E-01 1.00000E+00 1.00000E+00
 -1       164 2.50000E-01 1.00000E+00 1.00000E+00
 -1       165 5.00000E-01 1.00000E+00 1.50000E+00
 -1       166 7.50000E-01 1.00000E+00 2.00000E+00
 -1       167 5.00000E-01 1.00000E+00 2.00000E+00
 -1       168 2.50000E-01 1.00000E+00 2.00000E+00
 -1       169 5.00000E-01 1.00000E+00 2.50000E+00
 -1       170 7.50000E-01 1.00000E+00 3.00000E+00
 -1       171 5.00000E-01 1.00000E+00 3.00000E+00
 -1       172 2.50000E-01 1.00000E+00 3.00000E+00
 -1       173 5.00000E-01 1.00000E+00 3.50000E+00
 -1       174 7.50000E-01 1.00000E+00 4.00000E+00
 -1       175 5.00000E-01 1.00000E+00 4.00000E+00
 -1       176 2.50000E-01 1.00000E+00 4.00000E+00
 -1       177 5.00000E-01 1.00000E+00 4.50000E+00
 -1       178 7.50000E-01 1.00000E+00 5.00000E+00
 -1       179 5.00000E-01 1.00000E+00 5.00000E+00
 -1       180 2.50000E-01 1.00000E+00 5.00000E+00
 -1       181 5.00000E-01 1.00000E+00 5.50000E+00
 -1       182 7.50000E-01 1.00000E+00 6.00000E+00
 -1       183 5.00000E-01 1.00000E+00 6.00000E+00
 -1       184 2.50000E-01 1.00000E+00 6.00000E+00
 -1       190 0.00000E+00 5.00000E-01 5.00000E-01
 -1       191 0.00000E+00 7.50000E-01 1.00000E+00
 -1       192 0.00000E+00 5.00000E-01 1.00000E+00
 -1       193 0.00000E+00 2.50000E-01 1.00000E+00
 -1       194 0.00000E+00 5.00000E-01 1.50000E+00
 -1       195 0.00000E+00 7.50000E-01 2.00000E+00
 -1       196 0.00000E+00 5.00000E-01 2.00000E+00
 -1       197 0.00000E+00 2.50000E-01 2.00000E+00
 -1       198 0.00000E+00 5.00000E-01 2.50000E+00
 -1       199 0.00000E+00 7.50000E-01 3.00000E+00
 -1       200 0.00000E+00 5.00000E-01 3.00000E+00
 -1       201 0.00000E+00 2.50000E-01 3.00000E+00
 -1       202 0.00000E+00 5.00000E-01 3.50000E+00
 -1       203 0.00000E+00 7.50000E-01 4.00000E+00
 -1       204 0.00000E+00 5.00000E-01 4.00000E+00
 -1       205 0.00000E+00 2.50000E-01 4.00000E+00
 -1       206 0.00000E+00 5.00000E-01 4.50000E+00
 -1       207 0.00000E+00 7.50000E-01 5.00000E+00
 -1       208 0.00000E+00 5.00000E-01 5.00000E+00
 -1       209 0.00000E+00 2.50000E-01 5.00000E+00
 -1       210 0.00000E+00 5.00000E-01 5.50000E+00
 -1       211 0.00000E+00 7.50000E-01 6.00000E+00
 -1       212 0.00000E+00 5.00000E-01 6.00000E+00
 -1       213 0.00000E+00 2.50000E-01 6.00000E+00
 -1       219 5.00000E-01 5.00000E-01 5.00000E-01
 -1       220 5.00000E-01 2.50000E-01 1.00000E+00
 -1       221 2.50000E-01 5.00000E-01 1.00000E+00
 -1       222 5.00000E-01 5.00000E-01 1.00000E+00
 -1       223 7.50000E-01 5.00000E-01 1.00000E+00
 -1       224 5.00000E-01 7.50000E-01 1.00000E+00
 -1       225 5.00000E-01 5.00000E-01 1.50000E+00
 -1       226 5.00000E-01 2.50000E-01 2.00000E+00
 -1       227 2.50000E-01 5.00000E-01 2.00000E+00
 -1       228 5.00000E-01 5.00000E-01 2.00000E+00
 -1       229 7.50000E-01 5.00000E-01 2.00000E+00
 -1       230 5.00000E-01 7.50000E-01 2.00000E+00
 -1       231 5.00000E-01 5.00000E-01 2.50000E+00
 -1       232 5.00000E-01 2.50000E-01 3.00000E+00
 -1       233 2.50000E-01 5.00000E-01 3.00000E+00
 -1       234 5.00000E-01 5.00000E-01 3.00000E+00
 -1       235 7.50000E-01 5.00000E-01 3.00000E+00
 -1       236 5.00000E-01 7.50000E-01 3.00000E+00
 -1       237 5.00000E-01 5.00000E-01 3.50000E+00
 -1       238 5.00000E-01 2.50000E-01 4.00000E+00
 -1       239 2.50000E-01 5.00000E-01 4.00000E+00
 -1       240 5.00000E-01 5.00000E-01 4.00000E+00
 -1       241 7.50000E-01 5.00000E-01 4.00000E+00
 -1       242 5.00000E-01 7.50000E-01 4.00000E+00
 -1       243 5.00000E-01 5.00000E-01 4.50000E+00
 -1       244 5.00000E-01 2.50000E-01 5.00000E+00
 -1       245 2.50000E-01 5.00000E-01 5.00000E+00
 -1       246 5.00000E-01 5.00000E-01 5.00000E+00
 -1       247 7.50000E-01 5.00000E-01 5.00000E+00
 -1       248 5.00000E-01 7.50000E-01 5.00000E+00
 -1       249 5.00000E-01 5.00000E-01 5.50000E+00
 -1       250 5.00000E-01 2.50000E-01 6.00000E+00
 -1       251 2.50000E-01 5.00000E-01 6.00000E+00
 -1       252 5.00000E-01 5.00000E-01 6.00000E+00
 -1       253 7.50000E-01 5.00000E-01 6.00000E+00
 -1       254 5.00000E-01 7.50000E-01 6.00000E+00
 -3
    3C                            24                                     1
 -1         1    4    0    1
 -2         1        10        95        19        61       105       222       192         9        93
 -2        94        20        62       103       219       190       104       220       221       193
 -1         2    4    0    1
 -2        10         2        13        95       105        34       134       222        11        12
 -2        96        93       103        33       132       219       106       133       223       220
 -1         3    4    0    1
 -2        19        95        16         4       192       222       163        79        94        97
 -2        17        18       190       219       161        78       221       224       164       191
 -1         4    4    0    1
 -2        95        13         3        16       222       134        64       163        96        14
 -2        15        97       219       132        63       161       223       135       162       224
 -1         5    4    0    1
 -2        61       105       222       192        59       109       228       196       104       220
 -2       221       193        60       107       225       194       108       226       227       197
 -1         6    4    0    1
 -2       105        34       134       222       109        36       138       228       106       133
 -2       223       220       107        35       136       225       110       137       229       226
 -1         7    4    0    1
 -2       192       222       163        79       196       228       167        81       221       224
 -2       164       191       194       225       165        80       227       230       168       195
 -1         8    4    0    1
 -2       222       134        64       163       228       138        66       167       223       135
 -2       162       224       225       136        65       165       229       139       166       230
 -1         9    4    0    1
 -2        59       109       228       196        57       113       234       200       108       226
 -2       227       197        58       111       231       198       112       232       233       201
 -1        10    4    0    1
 -2       109        36       138       228       113        38       142       234       110       137
 -2       229       226       111        37       140       231       114       141       235       232
 -1        11    4    0    1
 -2       196       228       167        81       200       234       171        83       227       230
 -2       168       195       198       231       169        82       233       236       172       199
 -1        12    4    0    1
 -2       228       138        66       167       234       142        68       171       229       139
 -2       166       230       231       140        67       169       235       143       170       236
 -1        13    4    0    1
 -2        57       113       234       200        55       117       240       204       112       232
 -2       233       201        56       115       237       202       116       238       239       205
 -1        14    4    0    1
 -2       113        38       142       234       117        40       146       240       114       141
 -2       235       232       115        39       144       237       118       145       241       238
 -1        15    4    0    1
 -2       200       234       171        83       204       240       175        85       233       236
 -2       172       199       202       237       173        84       239       242       176       203
 -1        16    4    0    1
 -2       234       142        68       171       240       146        70       175       235       143
 -2       170       236       237       144        69       173       241       147       174       242
 -1        17    4    0    1
 -2        55       117       240       204        53       121       246       208       116       238
 -2       239       205        54       119       243       206       120       244       245       209
 -1        18    4    0    1
 -2       117        40       146       240       121        42       150       246       118       145
 -2       241       238       119        41       148       243       122       149       247       244
 -1        19    4    0    1
 -2       204       240       175        85       208       246       179        87       239       242
 -2       176       203       206       243       177        86       245       248       180       207
 -1        20    4    0    1
 -2       240       146        70       175       246       150        72       179       241       147
 -2       174       242       243       148        71       177       247       151       178       248
 -1        21    4    0    1
 -2        53       121       246       208        51       125       252       212       120       244
 -2       245       209        52       123       249       210       124       250       251       213
 -1        22    4    0    1
 -2       121        42       150       246       125        44       154       252       122       149
 -2       247       244       123        43       152       249       126       153       253       250
 -1        23    4    0    1
 -2       208       246       179        87       212       252       183        89       245       248
 -2       180       207       210       249       181        88       251       254       184       211
 -1        24    4    0    1
 -2       246       150        72       179       252       154        74       183       247       151
 -2       178       248       249       152        73       181       253       155       182       254
 -3
    1PSTEP                         1           1           1          
  100CL  101 5.00000E-03         201                     1    1           1
 -4  DISP        4    1
 -5  D1          1    2    1    0
 -5  D2          1    2    2    0
 -5  D3          1    2    3    0
 -5  ALL         1    2    0    0    1ALL
 -1         1 0.00000E+00 0.00000E+00 0.00000E+00
 -1         2 0.00000E+00 0.00000E+00 0.00000E+00
 -1         3 0.00000E+00 0.00000E+00 0.00000E+00
 -1         4 0.00000E+00 0.00000E+00 0.00000E+00
 -1         9 0.00000E+00 0.00000E+00 0.00000E+00
 -1        10 0.00000E+00 0.00000E+00 0.00000E+00
 -1        11 0.00000E+00 0.00000E+00 0.00000E+00
 -1        12 0.00000E+00 0.00000E+00 0.00000E+00
 -1        13 0.00000E+00 0.00000E+00 0.00000E+00
 -1        14 0.00000E+00 0.00000E+00 0.00000E+00
 -1        15 0.00000E+00 0.00000E+00 0.00000E+00
 -1        16 0.00000E+00 0.00000E+00 0.00000E+00
 -1        17 0.00000E+00 0.00000E+00 0.00000E+00
 -1        18 0.00000E+00 0.00000E+00 0.00000E+00
 -1        19 0.00000E+00 0.00000E+00 0.00000E+00
 -1        20 0.00000E+00 0.00000E+00 0.00000E+00
 -1        33 6.38329E-05-1.55667E-04-2.04526E-04
 -1        34 3.13337E-05-4.81957E-04-3.74427E-04
 -1        35 2.57661E-05-9.70952E-04-4.84004E-04
 -1        36 8.15310E-06-1.52863E-03-5.41056E-04
 -1        37-5.16942E-06-2.11229E-03-5.47895E-04
 -1        38-2.11206E-05-2.69524E-03-5.19238E-04
 -1        39-4.25617E-05-3.19630E-03-3.84893E-04
 -1        40-4.31434E-05-3.54432E-03-2.09704E-04
 -1        41-4.43408E-05-3.58198E-03-6.39527E-05
 -1        42-6.14492E-05-3.74167E-03-1.48280E-04
 -1        43 6.21682E-05-3.47361E-03 8.55107E-05
 -1        44-5.99903E-05-3.46590E-03 4.48552E-04
 -1        51 5.99858E-05-3.46589E-03 4.48545E-04
 -1        52-6.21701E-05-3.47360E-03 8.55077E-05
 -1        53 6.14474E-05-3.74166E-03-1.48280E-04
 -1        54 4.43420E-05-3.58197E-03-6.39527E-05
 -1        55 4.31448E-05-3.54431E-03-2.09704E-04
 -1        56 4.25634E-05-3.19630E-03-3.84892E-04
 -1        57 2.11220E-05-2.69524E-03-5.19237E-04
 -1        58 5.17049E-06-2.11229E-03-5.47894E-04
 -1        59-8.15259E-06-1.52863E-03-5.41055E-04
 -1        60-2.57660E-05-9.70950E-04-4.84003E-04
 -1        61-3.13340E-05-4.81956E-04-3.74426E-04
 -1        62-6.38332E-05-1.55666E-04-2.04526E-04
 -1        63-6.26563E-05-1.53934E-04 2.01092E-04
 -1        64-3.11698E-05-4.81396E-04 3.67057E-04
 -1        65-2.34208E-05-9.70486E-04 4.73685E-04
 -1        66-7.92970E-06-1.53513E-03 5.27326E-04
 -1        67 5.01521E-06-2.10254E-03 5.30961E-04
 -1        68 1.46096E-05-2.69576E-03 4.94043E-04
 -1        69 5.86525E-05-3.20695E-03 3.58237E-04
 -1        70 6.59845E-05-3.63560E-03 1.84572E-04
 -1        71-5.39325E-06-3.45984E-03 3.34177E-05
 -1        72-1.04409E-04-3.47889E-03 7.91184E-05
 -1        73 2.02513E-04-3.88892E-03-1.68731E-04
 -1        74 3.18093E-04-4.41231E-03-4.94779E-04
 -1        78 6.26572E-05-1.53934E-04 2.01092E-04
 -1        79 3.11722E-05-4.81395E-04 3.67058E-04
 -1        80 2.34248E-05-9.70484E-04 4.73686E-04
 -1        81 7.93584E-06-1.53512E-03 5.27327E-04
 -1        82-5.00774E-06-2.10254E-03 5.30962E-04
 -1        83-1.45991E-05-2.69576E-03 4.94044E-04
 -1        84-5.86419E-05-3.20694E-03 3.58237E-04
 -1        85-6.59704E-05-3.63559E-03 1.84572E-04
 -1        86 5.40403E-06-3.45984E-03 3.34179E-05
 -1        87 1.04431E-04-3.47888E-03 7.91198E-05
 -1        88-2.02502E-04-3.88891E-03-1.68736E-04
 -1        89-3.18073E-04-4.41230E-03-4.94787E-04
 -1        93 0.00000E+00 0.00000E+00 0.00000E+00
 -1        94 0.00000E+00 0.00000E+00 0.00000E+00
 -1        95 0.00000E+00 0.00000E+00 0.00000E+00
 -1        96 0.00000E+00 0.00000E+00 0.00000E+00
 -1        97 0.00000E+00 0.00000E+00 0.00000E+00
 -1       103-1.86043E-10-1.81949E-04-2.00733E-04
 -1       104-1.56263E-05-5.01383E-04-3.80341E-04
 -1       105-1.33581E-10-5.03907E-04-3.82984E-04
 -1       106 1.56260E-05-5.01383E-04-3.80341E-04
 -1       107 1.33164E-11-9.81050E-04-4.86726E-04
 -1       108-3.29961E-06-1.53083E-03-5.44762E-04
 -1       109 2.84645E-10-1.54146E-03-5.43687E-04
 -1       110 3.30015E-06-1.53083E-03-5.44762E-04
 -1       111 5.16626E-10-2.10346E-03-5.51684E-04
 -1       112 7.50316E-06-2.71929E-03-5.21394E-04
 -1       113 7.89098E-10-2.71251E-03-5.22992E-04
 -1       114-7.50170E-06-2.71929E-03-5.21394E-04
 -1       115 8.14361E-10-3.15807E-03-3.93414E-04
 -1       116 3.30786E-05-3.52075E-03-2.04085E-04
 -1       117 9.83021E-10-3.64310E-03-1.83171E-04
 -1       118-3.30769E-05-3.52075E-03-2.04085E-04
 -1       119 3.62364E-10-3.55544E-03-6.58500E-05
 -1       120-7.09420E-06-3.91213E-03-1.12834E-04
 -1       121 4.05324E-10-3.76598E-03-1.17777E-04
 -1       122 7.09375E-06-3.91214E-03-1.12834E-04
 -1       123-1.41895E-09-3.48443E-03-2.56109E-05
 -1       124 1.49545E-04-2.96662E-03 4.29668E-04
 -1       125 6.54885E-10-3.58963E-03 4.48583E-04
 -1       126-1.49546E-04-2.96662E-03 4.29675E-04
 -1       132 7.17801E-07-1.18687E-04-1.59848E-06
 -1       133 1.61358E-05-4.69691E-04-1.78027E-04
 -1       134 8.90797E-07-4.74401E-04-2.87493E-06
 -1       135-1.53960E-05-4.69797E-04 1.71211E-04
 -1       136-1.63007E-07-9.53419E-04-5.57436E-06
 -1       137 4.80890E-06-1.52672E-03-2.68645E-04
 -1       138 5.16957E-07-1.51891E-03-7.34989E-06
 -1       139-3.66339E-06-1.52841E-03 2.55215E-04
 -1       140 1.70148E-06-2.12641E-03-9.17584E-06
 -1       141-1.04549E-05-2.68068E-03-2.44361E-04
 -1       142 5.53605E-06-2.68719E-03-5.10199E-06
 -1       143 1.13053E-05-2.68687E-03 2.24222E-04
 -1       144-8.89276E-06-3.22041E-03-1.26881E-05
 -1       145-2.03160E-05-3.56327E-03-1.32070E-04
 -1       146-1.29856E-05-3.46624E-03-2.47920E-05
 -1       147 1.81761E-05-3.58742E-03 1.00760E-04
 -1       148 2.70977E-05-3.68236E-03-2.37019E-05
 -1       149-3.27705E-05-3.42276E-03-4.68687E-05
 -1       150 8.52627E-05-3.44978E-03-1.92240E-06
 -1       151 2.83175E-05-3.35511E-03-1.57038E-08
 -1       152-1.26974E-04-3.72239E-03 1.16373E-05
 -1       153 6.98851E-05-3.63677E-03 1.91198E-04
 -1       154-1.20341E-04-2.50339E-03-2.08769E-05
 -1       155-6.50410E-05-3.88935E-03-2.37988E-04
 -1       161 4.48604E-10-1.80744E-04 1.97007E-04
 -1       162-1.53708E-05-5.00741E-04 3.73604E-04
 -1       163 1.10300E-09-5.01453E-04 3.75776E-04
 -1       164 1.53731E-05-5.00740E-04 3.73604E-04
 -1       165 2.03219E-09-9.81111E-04 4.76675E-04
 -1       166-3.94680E-06-1.52818E-03 5.30668E-04
 -1       167 2.77952E-09-1.53740E-03 5.32896E-04
 -1       168 3.95263E-06-1.52818E-03 5.30668E-04
 -1       169 3.97691E-09-2.10432E-03 5.30953E-04
 -1       170 7.53118E-06-2.71920E-03 5.01372E-04
 -1       171 4.39356E-09-2.68117E-03 4.96958E-04
 -1       172-7.52147E-06-2.71920E-03 5.01372E-04
 -1       173 5.84851E-09-3.17871E-03 3.69053E-04
 -1       174 3.14652E-05-3.46239E-03 1.71080E-04
 -1       175 4.97463E-09-3.56239E-03 1.72685E-04
 -1       176-3.14533E-05-3.46239E-03 1.71081E-04
 -1       177 7.40347E-09-3.51239E-03 2.07973E-05
 -1       178-4.46532E-05-4.00927E-03 7.15642E-05
 -1       179 4.23989E-09-3.57989E-03 4.81849E-05
 -1       180 4.46688E-05-4.00926E-03 7.15613E-05
 -1       181 8.48220E-09-3.68457E-03-6.06650E-05
 -1       182 1.14411E-04-2.56301E-03-4.71239E-04
 -1       183-4.86494E-09-4.35576E-03-4.76819E-04
 -1       184-1.14407E-04-2.56300E-03-4.71229E-04
 -1       190-7.17419E-07-1.18686E-04-1.59807E-06
 -1       191 1.53978E-05-4.69796E-04 1.71212E-04
 -1       192-8.89705E-07-4.74400E-04-2.87413E-06
 -1       193-1.61354E-05-4.69689E-04-1.78026E-04
 -1       194 1.65053E-07-9.53417E-04-5.57338E-06
 -1       195 3.66812E-06-1.52841E-03 2.55216E-04
 -1       196-5.13668E-07-1.51891E-03-7.34878E-06
 -1       197-4.80701E-06-1.52672E-03-2.68644E-04
 -1       198-1.69719E-06-2.12641E-03-9.17478E-06
 -1       199-1.12972E-05-2.68687E-03 2.24223E-04
 -1       200-5.53029E-06-2.68718E-03-5.10096E-06
 -1       201 1.04584E-05-2.68068E-03-2.44360E-04
 -1       202 8.89893E-06-3.22040E-03-1.26876E-05
 -1       203-1.81651E-05-3.58741E-03 1.00760E-04
 -1       204 1.29931E-05-3.46623E-03-2.47918E-05
 -1       205 2.03203E-05-3.56327E-03-1.32070E-04
 -1       206-2.70916E-05-3.68235E-03-2.37019E-05
 -1       207-2.83028E-05-3.35510E-03-1.32010E-08
 -1       208-8.52537E-05-3.44977E-03-1.92155E-06
 -1       209 3.27745E-05-3.42275E-03-4.68701E-05
 -1       210 1.26978E-04-3.72238E-03 1.16335E-05
 -1       211 6.50561E-05-3.88935E-03-2.37998E-04
 -1       212 1.20347E-04-2.50339E-03-2.08811E-05
 -1       213-6.98854E-05-3.63677E-03 1.91198E-04
 -1       219 1.57075E-10-1.44468E-04-1.42766E-06
 -1       220 1.95845E-10-4.89518E-04-1.83678E-04
 -1       221-4.14642E-07-4.91045E-04-3.63403E-06
 -1       222 5.10665E-10-4.92452E-04-3.79846E-06
 -1       223 4.15684E-07-4.91046E-04-3.63440E-06
 -1       224 8.14811E-10-4.88143E-04 1.76718E-04
 -1       225 1.02737E-09-9.65578E-04-5.12660E-06
 -1       226 9.19580E-10-1.53425E-03-2.72941E-04
 -1       227-3.63842E-07-1.52015E-03-6.86351E-06
 -1       228 1.55121E-09-1.52201E-03-8.44821E-06
 -1       229 3.67031E-07-1.52015E-03-6.86406E-06
 -1       230 2.16330E-09-1.53261E-03 2.57746E-04
 -1       231 2.23204E-09-2.12499E-03-7.47121E-06
 -1       232 1.69658E-09-2.68866E-03-2.49393E-04
 -1       233-2.21906E-06-2.68444E-03-1.27019E-05
 -1       234 2.62332E-09-2.68159E-03-1.39807E-05
 -1       235 2.22459E-06-2.68445E-03-1.27023E-05
 -1       236 3.51239E-09-2.67147E-03 2.27157E-04
 -1       237 3.25889E-09-3.19272E-03-9.34398E-06
 -1       238 2.02160E-09-3.61203E-03-1.24105E-04
 -1       239 5.77508E-06-3.45408E-03-1.43834E-05
 -1       240 3.02005E-09-3.47808E-03-2.00714E-05
 -1       241-5.76836E-06-3.45408E-03-1.43838E-05
 -1       242 3.94656E-09-3.57470E-03 8.84142E-05
 -1       243 3.83215E-09-3.65658E-03-2.12404E-05
 -1       244 1.32431E-09-3.52160E-03-2.05192E-05
 -1       245-3.37877E-05-3.61249E-03-2.62411E-05
 -1       246 2.47562E-09-3.65280E-03-1.97884E-05
 -1       247 3.37949E-05-3.61250E-03-2.62403E-05
 -1       248 3.50737E-09-3.43756E-03-1.00074E-05
 -1       249 3.13073E-09-3.52324E-03-1.33825E-05
 -1       250-4.99031E-10-4.08225E-03 1.74387E-04
 -1       251 3.03072E-05-2.57245E-03-1.04003E-05
 -1       252-2.78508E-09-3.12419E-03-1.60462E-05
 -1       253-3.03071E-05-2.57244E-03-1.04032E-05
 -1       254-4.65025E-09-4.41370E-03-2.54600E-04
 -3
    1PSTEP                         2           2           1          
  100CL  102 1.00000E-02         201                     1    2           1
 -4  DISP        4    1
 -5  D1          1    2    1    0
 -5  D2          1    2    2    0
 -5  D3          1    2    3    0
 -5  ALL         1    2    0    0    1ALL
 -1         1 0.00000E+00 0.00000E+00 0.00000E+00
 -1         2 0.00000E+00 0.00000E+00 0.00000E+00
 -1         3 0.00000E+00 0.00000E+00 0.00000E+00
 -1         4 0.00000E+00 0.00000E+00 0.00000E+00
 -1         9 0.00000E+00 0.00000E+00 0.00000E+00
 -1        10 0.00000E+00 0.00000E+00 0.00000E+00
 -1        11 0.00000E+00 0.00000E+00 0.00000E+00
 -1        12 0.00000E+00 0.00000E+00 0.00000E+00
 -1        13 0.00000E+00 0.00000E+00 0.00000E+00
 -1        14 0.00000E+00 0.00000E+00 0.00000E+00
 -1        15 0.00000E+00 0.00000E+00 0.00000E+00
 -1        16 0.00000E+00 0.00000E+00 0.00000E+00
 -1        17 0.00000E+00 0.00000E+00 0.00000E+00
 -1        18 0.00000E+00 0.00000E+00 0.00000E+00
 -1        19 0.00000E+00 0.00000E+00 0.00000E+00
 -1        20 0.00000E+00 0.00000E+00 0.00000E+00
 -1        33-3.19971E-05 7.91775E-05 1.03012E-04
 -1        34-1.54850E-05 2.44835E-04 1.87750E-04
 -1        35-1.27486E-05 4.92596E-04 2.42739E-04
 -1        36-4.51574E-06 7.74385E-04 2.70072E-04
 -1        37 4.31758E-06 1.07192E-03 2.71869E-04
 -1        38 1.35212E-05 1.36777E-03 2.50335E-04
 -1        39 2.07587E-05 1.60895E-03 1.85226E-04
 -1        40 1.39442E-05 1.78349E-03 9.24267E-05
 -1        41 3.51049E-05 1.81758E-03 2.07701E-05
 -1        42 4.49518E-05 1.87262E-03 1.11754E-05
 -1        43-3.88765E-05 1.69708E-03-7.83679E-05
 -1        44-1.52545E-04 1.60683E-03-2.33987E-04
 -1        51 1.52606E-04 1.60676E-03-2.33985E-04
 -1        52 3.89431E-05 1.69709E-03-7.83800E-05
 -1        53-4.49122E-05 1.87262E-03 1.11769E-05
 -1        54-3.50499E-05 1.81759E-03 2.07758E-05
 -1        55-1.38996E-05 1.78349E-03 9.24295E-05
 -1        56-2.07137E-05 1.60896E-03 1.85233E-04
 -1        57-1.34883E-05 1.36777E-03 2.50343E-04
 -1        58-4.28955E-06 1.07193E-03 2.71877E-04
 -1        59 4.53389E-06 7.74388E-04 2.70080E-04
 -1        60 1.27605E-05 4.92599E-04 2.42746E-04
 -1        61 1.54899E-05 2.44837E-04 1.87755E-04
 -1        62 3.19986E-05 7.91792E-05 1.03015E-04
 -1        63 3.19962E-05 7.91686E-05-1.02999E-04
 -1        64 1.54949E-05 2.44829E-04-1.87721E-04
 -1        65 1.27444E-05 4.92601E-04-2.42697E-04
 -1        66 4.51627E-06 7.74428E-04-2.70015E-04
 -1        67-4.25427E-06 1.07185E-03-2.71799E-04
 -1        68-1.33776E-05 1.36771E-03-2.50232E-04
 -1        69-2.08895E-05 1.60909E-03-1.85102E-04
 -1        70-1.42915E-05 1.78409E-03-9.23033E-05
 -1        71-3.44034E-05 1.81672E-03-2.06286E-05
 -1        72-4.28331E-05 1.87018E-03-1.08892E-05
 -1        73 3.61434E-05 1.70041E-03 7.87648E-05
 -1        74 1.48090E-04 1.61309E-03 2.34225E-04
 -1        78-3.19932E-05 7.91684E-05-1.02996E-04