    1C
    1UUSER                                                              
    1UDATE              16.july.2018                                    
    1UTIME              13:22:07                                        
    1UHOST                                                              
    1UPGM               CalculiX                                        
    1UVERSION           Version 2.13                             
    1UCOMPILETIME       jue jun 14 00:40:39 CEST 2018                    
    1UDIR                                                               
    1UDBN                                                               
    1UMAT    1EL                                                        
    2C                            81                                     1
 -1         5 0.00000E+00 0.00000E+00 8.00000E+00
 -1         6 1.00000E+00 0.00000E+00 8.00000E+00
 -1         7 1.00000E+00 1.00000E+00 8.00000E+00
 -1         8 0.00000E+00 1.00000E+00 8.00000E+00
 -1        21 2.50000E-01 0.00000E+00 8.00000E+00
 -1        22 5.00000E-01 0.00000E+00 8.00000E+00
 -1        23 7.50000E-01 0.00000E+00 8.00000E+00
 -1        24 1.00000E+00 2.50000E-01 8.00000E+00
 -1        25 1.00000E+00 5.00000E-01 8.00000E+00
 -1        26 1.00000E+00 7.50000E-01 8.00000E+00
 -1        27 7.50000E-01 1.00000E+00 8.00000E+00
 -1        28 5.00000E-01 1.00000E+00 8.00000E+00
 -1        29 2.50000E-01 1.00000E+00 8.00000E+00
 -1        30 0.00000E+00 7.50000E-01 8.00000E+00
 -1        31 0.00000E+00 5.00000E-01 8.00000E+00
 -1        32 0.00000E+00 2.50000E-01 8.00000E+00
 -1        44 1.00000E+00 0.00000E+00 6.00000E+00
 -1        45 1.00000E+00 0.00000E+00 6.50000E+00
 -1        46 1.00000E+00 0.00000E+00 7.00000E+00
 -1        47 1.00000E+00 0.00000E+00 7.50000E+00
 -1        48 0.00000E+00 0.00000E+00 7.50000E+00
 -1        49 0.00000E+00 0.00000E+00 7.00000E+00
 -1        50 0.00000E+00 0.00000E+00 6.50000E+00
 -1        51 0.00000E+00 0.00000E+00 6.00000E+00
 -1        74 1.00000E+00 1.00000E+00 6.00000E+00
 -1        75 1.00000E+00 1.00000E+00 6.50000E+00
 -1        76 1.00000E+00 1.00000E+00 7.00000E+00
 -1        77 1.00000E+00 1.00000E+00 7.50000E+00
 -1        89 0.00000E+00 1.00000E+00 6.00000E+00
 -1        90 0.00000E+00 1.00000E+00 6.50000E+00
 -1        91 0.00000E+00 1.00000E+00 7.00000E+00
 -1        92 0.00000E+00 1.00000E+00 7.50000E+00
 -1        98 5.00000E-01 2.50000E-01 8.00000E+00
 -1        99 2.50000E-01 5.00000E-01 8.00000E+00
 -1       100 5.00000E-01 5.00000E-01 8.00000E+00
 -1       101 7.50000E-01 5.00000E-01 8.00000E+00
 -1       102 5.00000E-01 7.50000E-01 8.00000E+00
 -1       124 2.50000E-01 0.00000E+00 6.00000E+00
 -1       125 5.00000E-01 0.00000E+00 6.00000E+00
 -1       126 7.50000E-01 0.00000E+00 6.00000E+00
 -1       127 5.00000E-01 0.00000E+00 6.50000E+00
 -1       128 2.50000E-01 0.00000E+00 7.00000E+00
 -1       129 5.00000E-01 0.00000E+00 7.00000E+00
 -1       130 7.50000E-01 0.00000E+00 7.00000E+00
 -1       131 5.00000E-01 0.00000E+00 7.50000E+00
 -1       153 1.00000E+00 2.50000E-01 6.00000E+00
 -1       154 1.00000E+00 5.00000E-01 6.00000E+00
 -1       155 1.00000E+00 7.50000E-01 6.00000E+00
 -1       156 1.00000E+00 5.00000E-01 6.50000E+00
 -1       157 1.00000E+00 2.50000E-01 7.00000E+00
 -1       158 1.00000E+00 5.00000E-01 7.00000E+00
 -1       159 1.00000E+00 7.50000E-01 7.00000E+00
 -1       160 1.00000E+00 5.00000E-01 7.50000E+00
 -1       182 7.50000E-01 1.00000E+00 6.00000E+00
 -1       183 5.00000E-01 1.00000E+00 6.00000E+00
 -1       184 2.50000E-01 1.00000E+00 6.00000E+00
 -1       185 5.00000E-01 1.00000E+00 6.50000E+00
 -1       186 7.50000E-01 1.00000E+00 7.00000E+00
 -1       187 5.00000E-01 1.00000E+00 7.00000E+00
 -1       188 2.50000E-01 1.00000E+00 7.00000E+00
 -1       189 5.00000E-01 1.00000E+00 7.50000E+00
 -1       211 0.00000E+00 7.50000E-01 6.00000E+00
 -1       212 0.00000E+00 5.00000E-01 6.00000E+00
 -1       213 0.00000E+00 2.50000E-01 6.00000E+00
 -1       214 0.00000E+00 5.00000E-01 6.50000E+00
 -1       215 0.00000E+00 7.50000E-01 7.00000E+00
 -1       216 0.00000E+00 5.00000E-01 7.00000E+00
 -1       217 0.00000E+00 2.50000E-01 7.00000E+00
 -1       218 0.00000E+00 5.00000E-01 7.50000E+00
 -1       250 5.00000E-01 2.50000E-01 6.00000E+00
 -1       251 2.50000E-01 5.00000E-01 6.00000E+00
 -1       252 5.00000E-01 5.00000E-01 6.00000E+00
 -1       253 7.50000E-01 5.00000E-01 6.00000E+00
 -1       254 5.00000E-01 7.50000E-01 6.00000E+00
 -1       255 5.00000E-01 5.00000E-01 6.50000E+00
 -1       256 5.00000E-01 2.50000E-01 7.00000E+00
 -1       257 2.50000E-01 5.00000E-01 7.00000E+00
 -1       258 5.00000E-01 5.00000E-01 7.00000E+00
 -1       259 7.50000E-01 5.00000E-01 7.00000E+00
 -1       260 5.00000E-01 7.50000E-01 7.00000E+00
 -1       261 5.00000E-01 5.00000E-01 7.50000E+00
 -3
    3C                             8                                     1
 -1        25    4    0    1
 -2        51       125       252       212        49       129       258       216       124       250
 -2       251       213        50       127       255       214       128       256       257       217
 -1        26    4    0    1
 -2       125        44       154       252       129        46       158       258       126       153
 -2       253       250       127        45       156       255       130       157       259       256
 -1        27    4    0    1
 -2       212       252       183        89       216       258       187        91       251       254
 -2       184       211       214       255       185        90       257       260       188       215
 -1        28    4    0    1
 -2       252       154        74       183       258       158        76       187       253       155
 -2       182       254       255       156        75       185       259       159       186       260
 -1        29    4    0    1
 -2        49       129       258       216         5        22       100        31       128       256
 -2       257       217        48       131       261       218        21        98        99        32
 -1        30    4    0    1
 -2       129        46       158       258        22         6        25       100       130       157
 -2       259       256       131        47       160       261        23        24       101        98
 -1        31    4    0    1
 -2       216       258       187        91        31       100        28         8       257       260
 -2       188       215       218       261       189        92        99       102        29        30
 -1        32    4    0    1
 -2       258       158        76       187       100        25         7        28       259       159
 -2       186       260       261       160        77       189       101        26        27       102
 -3
    1PSTEP                         1           1           1          
  100CL  101 5.00000E-03          81                     1    1           1
 -4  DISP        4    1
 -5  D1          1    2    1    0
 -5  D2          1    2    2    0
 -5  D3          1    2    3    0
 -5  ALL         1    2    0    0    1ALL
 -1         5 0.00000E+00 0.00000E+00 0.00000E+00
 -1         6 0.00000E+00 0.00000E+00 0.00000E+00
 -1         7 0.00000E+00 0.00000E+00 0.00000E+00
 -1         8 0.00000E+00 0.00000E+00 0.00000E+00
 -1        21 0.00000E+00 0.00000E+00 0.00000E+00
 -1        22 0.00000E+00 0.00000E+00 0.00000E+00
 -1        23 0.00000E+00 0.00000E+00 0.00000E+00
 -1        24 0.00000E+00 0.00000E+00 0.00000E+00
 -1        25 0.00000E+00 0.00000E+00 0.00000E+00
 -1        26 0.00000E+00 0.00000E+00 0.00000E+00
 -1        27 0.00000E+00 0.00000E+00 0.00000E+00
 -1        28 0.00000E+00 0.00000E+00 0.00000E+00
 -1        29 0.00000E+00 0.00000E+00 0.00000E+00
 -1        30 0.00000E+00 0.00000E+00 0.00000E+00
 -1        31 0.00000E+00 0.00000E+00 0.00000E+00
 -1        32 0.00000E+00 0.00000E+00 0.00000E+00
 -1        44-7.71044E-05-3.49803E-03 4.47685E-04
 -1        45 4.48797E-05-2.57718E-03 7.86182E-04
 -1        46-4.14087E-05-1.78741E-03 9.48655E-04
 -1        47 1.33942E-04-6.70529E-04 5.43081E-04
 -1        48-1.33958E-04-6.70548E-04 5.43091E-04
 -1        49 4.13250E-05-1.78755E-03 9.48792E-04
 -1        50-4.49513E-05-2.57708E-03 7.86187E-04
 -1        51 7.69390E-05-3.49720E-03 4.47635E-04
 -1        74 3.06740E-04-4.39553E-03-4.94830E-04
 -1        75 1.82645E-04-2.96351E-03-7.86608E-04
 -1        76-1.06045E-04-1.60322E-03-9.50736E-04
 -1        77-2.05486E-04-5.29834E-04-5.58399E-04
 -1        89-3.06341E-04-4.39592E-03-4.94782E-04
 -1        90-1.82680E-04-2.96342E-03-7.86407E-04
 -1        91 1.05975E-04-1.60313E-03-9.50597E-04
 -1        92 2.05443E-04-5.29861E-04-5.58399E-04
 -1        98 0.00000E+00 0.00000E+00 0.00000E+00
 -1        99 0.00000E+00 0.00000E+00 0.00000E+00
 -1       100 0.00000E+00 0.00000E+00 0.00000E+00
 -1       101 0.00000E+00 0.00000E+00 0.00000E+00
 -1       102 0.00000E+00 0.00000E+00 0.00000E+00
 -1       124 1.53947E-04-2.95446E-03 4.28504E-04
 -1       125 2.21434E-07-3.60606E-03 4.47963E-04
 -1       126-1.53436E-04-2.95406E-03 4.28474E-04
 -1       127-8.60474E-08-2.56612E-03 9.00094E-04
 -1       128-1.10815E-05-1.95551E-03 9.48452E-04
 -1       129 5.40837E-08-1.81101E-03 9.40862E-04
 -1       130 1.10032E-05-1.95563E-03 9.48380E-04
 -1       131-1.60730E-08-7.34963E-04 5.56011E-04
 -1       153 7.42004E-05-3.65136E-03 1.90271E-04
 -1       154-1.20543E-04-2.50601E-03-2.17436E-05
 -1       155-6.14947E-05-3.88334E-03-2.38620E-04
 -1       156-1.15887E-04-2.78788E-03-6.29935E-05
 -1       157-2.11715E-05-1.50650E-03 3.92012E-04
 -1       158 8.64634E-05-1.56903E-03-2.85540E-05
 -1       159 4.58325E-05-1.47902E-03-4.11395E-04
 -1       160 3.87185E-05-6.56795E-04 4.88098E-06
 -1       182 1.07250E-04-2.57166E-03-4.71876E-04
 -1       183 1.94548E-07-4.34391E-03-4.76837E-04
 -1       184-1.06670E-04-2.57110E-03-4.71850E-04
 -1       185-1.39786E-08-2.83275E-03-8.75397E-04
 -1       186-4.15923E-05-2.16103E-03-9.82977E-04
 -1       187 2.37449E-09-1.83425E-03-9.64899E-04
 -1       188 4.15169E-05-2.16115E-03-9.82904E-04
 -1       189-9.91770E-09-7.20538E-04-5.64861E-04
 -1       211 6.12143E-05-3.88319E-03-2.38711E-04
 -1       212 1.21554E-04-2.50615E-03-2.18546E-05
 -1       213-7.42875E-05-3.65139E-03 1.90327E-04
 -1       214 1.16177E-04-2.78792E-03-6.29990E-05
 -1       215-4.57888E-05-1.47903E-03-4.11348E-04
 -1       216-8.67919E-05-1.56896E-03-2.85468E-05
 -1       217 2.10988E-05-1.50646E-03 3.92033E-04
 -1       218-3.88783E-05-6.56770E-04 4.94275E-06
 -1       250-1.05618E-08-4.08194E-03 1.73872E-04
 -1       251 2.62469E-05-2.57328E-03-1.13509E-05
 -1       252-2.43582E-07-3.11840E-03-1.72294E-05
 -1       253-2.65357E-05-2.57352E-03-1.15007E-05
 -1       254-1.19357E-07-4.41087E-03-2.54308E-04
 -1       255 3.66069E-09-2.60052E-03-3.27061E-05
 -1       256-2.75477E-08-1.60634E-03 3.95579E-04
 -1       257-3.94073E-05-1.74936E-03-1.24694E-05
 -1       258-9.89294E-08-1.78951E-03-1.48050E-05
 -1       259 3.92739E-05-1.74932E-03-1.23978E-05
 -1       260-3.40926E-08-1.62213E-03-4.18674E-04
 -1       261 1.22181E-09-7.17267E-04-1.84128E-06
 -3
    1PSTEP                         2           2           1          
  100CL  102 1.00000E-02          81                     1    2           1
 -4  DISP        4    1
 -5  D1          1    2    1    0
 -5  D2          1    2    2    0
 -5  D3          1    2    3    0
 -5  ALL         1    2    0    0    1ALL
 -1         5 0.00000E+00 0.00000E+00 0.00000E+00
 -1         6 0.00000E+00 0.00000E+00 0.00000E+00
 -1         7 0.00000E+00 0.00000E+00 0.00000E+00
 -1         8 0.00000E+00 0.00000E+00 0.00000E+00
 -1        21 0.00000E+00 0.00000E+00 0.00000E+00
 -1        22 0.00000E+00 0.00000E+00 0.00000E+00
 -1        23 0.00000E+00 0.00000E+00 0.00000E+00
 -1        24 0.00000E+00 0.00000E+00 0.00000E+00
 -1        25 0.00000E+00 0.00000E+00 0.00000E+00
 -1        26 0.00000E+00 0.00000E+00 0.00000E+00
 -1        27 0.00000E+00 0.00000E+00 0.00000E+00
 -1        28 0.00000E+00 0.00000E+00 0.00000E+00
 -1        29 0.00000E+00 0.00000E+00 0.00000E+00
 -1        30 0.00000E+00 0.00000E+00 0.00000E+00
 -1        31 0.00000E+00 0.00000E+00 0.00000E+00
 -1        32 0.00000E+00 0.00000E+00 0.00000E+00
 -1        44-1.42013E-04 1.63097E-03-2.31554E-04
 -1        45-2.71612E-05 1.25920E-03-3.77385E-04
 -1        46 3.77015E-05 9.09620E-04-4.31981E-04
 -1        47-5.57855E-05 3.66964E-04-2.84071E-04
 -1        48 5.57582E-05 3.67014E-04-2.84054E-04
 -1        49-3.78231E-05 9.09747E-04-4.31969E-04
 -1        50 2.72202E-05 1.25901E-03-3.77378E-04
 -1        51 1.42187E-04 1.62997E-03-2.31563E-04
 -1        74 1.59825E-04 1.59878E-03 2.32888E-04
 -1        75 4.00097E-05 1.24414E-03 3.78505E-04
 -1        76-4.41199E-05 9.18520E-04 4.33036E-04
 -1        77 5.25608E-05 3.71801E-04 2.84348E-04
 -1        89-1.60033E-04 1.59940E-03 2.32836E-04
 -1        90-4.00372E-05 1.24417E-03 3.78468E-04
 -1        91 4.40578E-05 9.18392E-04 4.32974E-04
 -1        92-5.25863E-05 3.71823E-04 2.84386E-04
 -1        98 0.00000E+00 0.00000E+00 0.00000E+00
 -1        99 0.00000E+00 0.00000E+00 0.00000E+00
 -1       100 0.00000E+00 0.00000E+00 0.00000E+00
 -1       101 0.00000E+00 0.00000E+00 0.00000E+00
 -1       102 0.00000E+00 0.00000E+00 0.00000E+00
 -1       124-2.22673E-07 1.47003E-03-2.17660E-04
 -1       125-1.05833E-07 1.78200E-03-2.29137E-04
 -1       126-2.08805E-07 1.46962E-03-2.17651E-04
 -1       127-1.68599E-08 1.30562E-03-4.15004E-04
 -1       128-1.70675E-06 9.61929E-04-4.64147E-04
 -1       129-5.12599E-08 8.86432E-04-4.72324E-04
 -1       130 1.69514E-06 9.62074E-04-4.64140E-04
 -1       131-7.23168E-09 3.74067E-04-2.75602E-04
 -1       153 1.24166E-04 1.93433E-03-1.02230E-04
 -1       154-3.38947E-07 1.69975E-03 9.85872E-07
 -1       155-1.28794E-04 1.91747E-03 1.03761E-04
 -1       156-3.22148E-06 1.40738E-03-6.65928E-07
 -1       157-2.51448E-05 7.90650E-04-1.85657E-04
 -1       158 1.28691E-06 8.11170E-04-4.91571E-07
 -1       159 2.57970E-05 7.95240E-04 1.86241E-04
 -1       160 7.27397E-07 3.08102E-04-2.97807E-08
 -1       182 1.00023E-05 1.48387E-03 2.19457E-04
 -1       183-3.13357E-07 1.76387E-03 2.30571E-04
 -1       184-1.06877E-05 1.48336E-03 2.19481E-04
 -1       185-3.66575E-08 1.30309E-03 4.18315E-04
 -1       186-5.04290E-06 9.60033E-04 4.64452E-04
 -1       187-5.11017E-08 8.91905E-04 4.73804E-04
 -1       188 5.02546E-06 9.60156E-04 4.64411E-04
 -1       189-5.16878E-09 3.75806E-04 2.76245E-04
 -1       211 1.29022E-04 1.91770E-03 1.03792E-04
 -1       212-4.06820E-07 1.70014E-03 9.55818E-07
 -1       213-1.24197E-04 1.93429E-03-1.02238E-04
 -1       214 2.70227E-06 1.40741E-03-6.65929E-07
 -1       215-2.58579E-05 7.95222E-04 1.86255E-04
 -1       216-9.88456E-07 8.11145E-04-4.28398E-07
 -1       217 2.51576E-05 7.90645E-04-1.85612E-04
 -1       218-6.35099E-07 3.08075E-04-9.91871E-09
 -1       250-7.15075E-08 1.90967E-03-1.01558E-04
 -1       251 4.13496E-06 1.20627E-03 7.36172E-07
 -1       252-1.22948E-07 1.53970E-03 8.59454E-07
 -1       253-4.13666E-06 1.20639E-03 7.49404E-07
 -1       254-6.38363E-08 1.91109E-03 1.03028E-04
 -1       255-5.39697E-08 1.37818E-03 6.42695E-07
 -1       256-3.40118E-08 7.82076E-04-2.07455E-04
 -1       257-1.40353E-06 9.15008E-04 4.45231E-07
 -1       258-3.54798E-09 8.10694E-04 3.25786E-07
 -1       259 1.42893E-06 9.14950E-04 3.92542E-07
 -1       260-5.86367E-08 7.82678E-04 2.07919E-04
 -1       261 4.83764E-09 3.48377E-04-8.44780E-08
 -3
    1PSTEP                         3           3           1          
  100CL  103 1.50000E-02          81                     1    3           1
 -4  DISP        4    1
 -5  D1          1    2    1    0
 -5  D2          1    2    2    0
 -5  D3          1    2    3    0
 -5  ALL         1    2    0    0    1ALL
 -1         5 0.00000E+00 0.00000E+00 0.00000E+00
 -1         6 0.00000E+00 0.00000E+00 0.00000E+00
 -1         7 0.00000E+00 0.00000E+00 0.00000E+00
 -1         8 0.00000E+00 0.00000E+00 0.00000E+00
 -1        21 0.00000E+00 0.00000E+00 0.00000E+00
 -1        22 0.00000E+00 0.00000E+00 0.00000E+00
 -1        23 0.00000E+00 0.00000E+00 0.00000E+00
 -1        24 0.00000E+00 0.00000E+00 0.00000E+00
 -1        25 0.00000E+00 0.00000E+00 0.00000E+00
 -1        26 0.00000E+00 0.00000E+00 0.00000E+00
 -1        27 0.00000E+00 0.00000E+00 0.00000E+00
 -1        28 0.00000E+00 0.00000E+00 0.00000E+00
 -1        29 0.00000E+00 0.00000E+00 0.00000E+00
 -1        30 0.00000E+00 0.00000E+00 0.00000E+00
 -1        31 0.00000E+00 0.00000E+00 0.00000E+00
 -1        32 0.00000E+00 0.00000E+00 0.00000E+00
 -1        44 1.21245E-04-1.28732E-03 1.81074E-04
 -1        45 2.32832E-05-9.95879E-04 2.99249E-04
 -1        46-3.14090E-05-7.23807E-04 3.42153E-04
 -1        47 4.32814E-05-2.92116E-04 2.25557E-04
 -1        48-4.32274E-05-2.92141E-04 2.25475E-04
 -1        49 3.15814E-05-7.23905E-04 3.42040E-04
 -1        50-2.30297E-05-9.95767E-04 2.99167E-04
 -1        51-1.20858E-04-1.28681E-03 1.81025E-04
 -1        74-1.37899E-04-1.25335E-03-1.81937E-04
 -1        75-3.57452E-05-9.80003E-04-3.00178E-04
 -1        76 3.79888E-05-7.32948E-04-3.43017E-04
 -1        77-3.99936E-05-2.97233E-04-2.25663E-04
 -1        89 1.38354E-04-1.25378E-03-1.82008E-04
 -1        90 3.60443E-05-9.80003E-04-3.00227E-04
 -1        91-3.78949E-05-7.32888E-04-3.43070E-04
 -1        92 4.00316E-05-2.97279E-04-2.25757E-04
 -1        98 0.00000E+00 0.00000E+00 0.00000E+00
 -1        99 0.00000E+00 0.00000E+00 0.00000E+00
 -1       100 0.00000E+00 0.00000E+00 0.00000E+00
 -1       101 0.00000E+00 0.00000E+00 0.00000E+00
 -1       102 0.00000E+00 0.00000E+00 0.00000E+00
 -1       124-1.27678E-06-1.16403E-03 1.69749E-04
 -1       125 3.84499E-07-1.41252E-03 1.79430E-04
 -1       126 2.15476E-06-1.16364E-03 1.69780E-04
 -1       127 1.24087E-07-1.03658E-03 3.28406E-04
 -1       128 1.68026E-06-7.63512E-04 3.68595E-04
 -1       129 1.14643E-07-7.02586E-04 3.75494E-04
 -1       130-1.55398E-06-7.63612E-04 3.68633E-04
 -1       131 1.41051E-08-2.96152E-04 2.18189E-04
 -1       153-1.04091E-04-1.54286E-03 7.98649E-05
 -1       154 1.32465E-06-1.36017E-03-7.06495E-07
 -1       155 1.08313E-04-1.52667E-03-8.08816E-05
 -1       156 3.71490E-06-1.11677E-03 1.07809E-06
 -1       157 2.13577E-05-6.27437E-04 1.46907E-04
 -1       158-1.62304E-06-6.44486E-04 6.58016E-07
 -1       159-2.19171E-05-6.31705E-04-1.47233E-04
 -1       160-8.73660E-07-2.43673E-04 2.14309E-08
 -1       182-9.98902E-06-1.17867E-03-1.71031E-04
 -1       183 4.70193E-07-1.39171E-03-1.80389E-04
 -1       184 1.08820E-05-1.17831E-03-1.71227E-04
 -1       185 9.62771E-08-1.03269E-03-3.31513E-04
 -1       186 4.76278E-06-7.60726E-04-3.68701E-04
 -1       187 1.14249E-07-7.07643E-04-3.76728E-04
 -1       188-4.64931E-06-7.60827E-04-3.68690E-04
 -1       189 5.99744E-09-2.97875E-04-2.18732E-04
 -1       211-1.08282E-04-1.52679E-03-8.09650E-05
 -1       212-4.53021E-07-1.36050E-03-6.82977E-07
 -1       213 1.04458E-04-1.54303E-03 7.96936E-05
 -1       214-3.09625E-06-1.11684E-03 9.68808E-07
 -1       215 2.20633E-05-6.31716E-04-1.47347E-04
 -1       216 1.50648E-06-6.44462E-04 4.98831E-07
 -1       217-2.12544E-05-6.27421E-04 1.46797E-04
 -1       218 8.35508E-07-2.43659E-04-3.93186E-08
 -1       250 2.50216E-07-1.51054E-03 7.93706E-05
 -1       251-3.84518E-06-9.49778E-04-5.31893E-07
 -1       252 1.70743E-07-1.21567E-03-5.28918E-07
 -1       253 4.09058E-06-9.49861E-04-5.20302E-07
 -1       254 2.09820E-07-1.50964E-03-8.01061E-05
 -1       255 1.48190E-07-1.09671E-03-3.81833E-07
 -1       256 8.45532E-08-6.18545E-04 1.64995E-04
 -1       257 1.54743E-06-7.26973E-04-3.51382E-07
 -1       258 4.38154E-08-6.39542E-04-2.19238E-07
 -1       259-1.47693E-06-7.26929E-04-2.60617E-07
 -1       260 1.02100E-07-6.19145E-04-1.65290E-04
 -1       261 1.62076E-08-2.75885E-04 9.95341E-08
 -3
    1PSTEP                         4           4           1          
  100CL  104 2.00000E-02          81                     1    4           1
 -4  DISP        4    1
 -5  D1          1    2    1    0
 -5  D2          1    2    2    0
 -5  D3          1    2    3    0
 -5  ALL         1    2    0    0    1ALL
 -1         5 0.00000E+00 0.00000E+00 0.00000E+00
 -1         6 0.00000E+00 0.00000E+00 0.00000E+00
 -1         7 0.00000E+00 0.00000E+00 0.00000E+00
 -1         8 0.00000E+00 0.00000E+00 0.00000E+00
 -1        21 0.00000E+00 0.00000E+00 0.00000E+00
 -1        22 0.00000E+00 0.00000E+00 0.00000E+00
 -1        23 0.00000E+00 0.00000E+00 0.00000E+00
 -1        24 0.00000E+00 0.00000E+00 0.00000E+00
 -1        25 0.00000E+00 0.00000E+00 0.00000E+00
 -1        26 0.00000E+00 0.00000E+00 0.00000E+00
 -1        27 0.00000E+00 0.00000E+00 0.00000E+00
 -1        28 0.00000E+00 0.00000E+00 0.00000E+00
 -1        29 0.00000E+00 0.00000E+00 0.00000E+00
 -1        30 0.00000E+00 0.00000E+00 0.00000E+00
 -1        31 0.00000E+00 0.00000E+00 0.00000E+00
 -1        32 0.00000E+00 0.00000E+00 0.00000E+00
 -1        44-9.57472E-05 1.00037E-03-1.37015E-04
 -1        45-1.78314E-05 7.73867E-04-2.32445E-04
 -1        46 2.46001E-05 5.63033E-04-2.66092E-04
 -1        47-3.33635E-05 2.26852E-04-1.75168E-04
 -1        48 3.33377E-05 2.26850E-04-1.75090E-04
 -1        49-2.46175E-05 5.63092E-04-2.66029E-04
 -1        50 1.75355E-05 7.73841E-04-2.32436E-04
 -1        51 9.54859E-05 1.00021E-03-1.37013E-04
 -1        74 1.10663E-04 9.73295E-04 1.37723E-04
 -1        75 2.84875E-05 7.60820E-04 2.33198E-04
 -1        76-3.01889E-05 5.70493E-04 2.66736E-04
 -1        77 3.04955E-05 2.31024E-04 1.75228E-04
 -1        89-1.11243E-04 9.73148E-04 1.37701E-04
 -1        90-2.88086E-05 7.60770E-04 2.33172E-04
 -1        91 3.02035E-05 5.70436E-04 2.66747E-04
 -1        92-3.05186E-05 2.31070E-04 1.75314E-04
 -1        98 0.00000E+00 0.00000E+00 0.00000E+00
 -1        99 0.00000E+00 0.00000E+00 0.00000E+00
 -1       100 0.00000E+00 0.00000E+00 0.00000E+00
 -1       101 0.00000E+00 0.00000E+00 0.00000E+00
 -1       102 0.00000E+00 0.00000E+00 0.00000E+00
 -1       124 2.04051E-06 8.99975E-04-1.27831E-04
 -1       125-4.12729E-07 1.09778E-03-1.36002E-04
 -1       126-2.74890E-06 8.99694E-04-1.27933E-04
 -1       127-5.03492E-08 8.05481E-04-2.54340E-04
 -1       128-1.48681E-06 5.94989E-04-2.87136E-04
 -1       129-1.19067E-07 5.46446E-04-2.92524E-04
 -1       130 1.39836E-06 5.95047E-04-2.87131E-04
 -1       131 4.35076E-09 2.29626E-04-1.69263E-04
 -1       153 8.24507E-05 1.20438E-03-6.01510E-05
 -1       154-3.62423E-07 1.05898E-03 5.96715E-07
 -1       155-8.65936E-05 1.19156E-03 6.08780E-05
 -1       156-2.70748E-06 8.68322E-04-9.39030E-07
 -1       157-1.70372E-05 4.86951E-04-1.14004E-04
 -1       158 1.11328E-06 5.01165E-04-5.44901E-07
 -1       159 1.76893E-05 4.90407E-04 1.14294E-04
 -1       160 6.42514E-07 1.89176E-04-1.40361E-08
 -1       182 9.66843E-06 9.11669E-04 1.28877E-04
 -1       183-5.35284E-07 1.08175E-03 1.36730E-04
 -1       184-1.05624E-05 9.11273E-04 1.28911E-04
 -1       185-7.80733E-08 8.02851E-04 2.57016E-04
 -1       186-4.13530E-06 5.92752E-04 2.87176E-04
 -1       187-1.04901E-07 5.50140E-04 2.93545E-04
 -1       188 4.05357E-06 5.92800E-04 2.87166E-04
 -1       189 6.04764E-09 2.30845E-04 1.69668E-04
 -1       211 8.65127E-05 1.19130E-03 6.10260E-05
 -1       212-3.81693E-07 1.05920E-03 5.72747E-07
 -1       213-8.26477E-05 1.20470E-03-6.00728E-05
 -1       214 2.32105E-06 8.68336E-04-8.26123E-07
 -1       215-1.77993E-05 4.90439E-04 1.14342E-04
 -1       216-1.06419E-06 5.01155E-04-4.23807E-07
 -1       217 1.69755E-05 4.86914E-04-1.13922E-04
 -1       218-6.00362E-07 1.89161E-04 9.74503E-09
 -1       250-1.78802E-07 1.17484E-03-5.97199E-05
 -1       251 2.99419E-06 7.30846E-04 4.57352E-07
 -1       252 7.80629E-08 9.38650E-04 4.85642E-07
 -1       253-3.02091E-06 7.30928E-04 5.26821E-07
 -1       254-1.66639E-07 1.17474E-03 6.02443E-05
 -1       255-1.10093E-07 8.54064E-04 2.88678E-07
 -1       256-5.30838E-08 4.79096E-04-1.28375E-04
 -1       257-1.18613E-06 5.65508E-04 2.73241E-07
 -1       258 4.71825E-09 4.95335E-04 1.60348E-07
 -1       259 1.15583E-06 5.65469E-04 1.83566E-07
 -1       260-6.23399E-08 4.79331E-04 1.28597E-04
 -1       261-2.44908E-08 2.14346E-04-6.85439E-08
 -3
    1PSTEP                         5           5           1          
  100CL  105 2.50000E-02          81                     1    5           1
 -4  DISP        4    1
 -5  D1          1    2    1    0
 -5  D2          1    2    2    0
 -5  D3          1    2    3    0
 -5  ALL         1    2    0    0    1ALL
 -1         5 0.00000E+00 0.00000E+00 0.00000E+00
 -1         6 0.00000E+00 0.00000E+00 0.00000E+00
 -1         7 0.00000E+00 0.00000E+00 0.00000E+00
 -1         8 0.00000E+00 0.00000E+00 0.00000E+00
 -1        21 0.00000E+00 0.00000E+00 0.00000E+00
 -1        22 0.00000E+00 0.00000E+00 0.00000E+00
 -1        23 0.00000E+00 0.00000E+00 0.00000E+00
 -1        24 0.00000E+00 0.00000E+00 0.00000E+00
 -1        25 0.00000E+00 0.00000E+00 0.00000E+00
 -1        26 0.00000E+00 0.00000E+00 0.00000E+00
 -1        27 0.00000E+00 0.00000E+00 0.00000E+00
 -1        28 0.00000E+00 0.00000E+00 0.00000E+00
 -1        29 0.00000E+00 0.00000E+00 0.00000E+00
 -1        30 0.00000E+00 0.00000E+00 0.00000E+00
 -1        31 0.00000E+00 0.00000E+00 0.00000E+00
 -1        32 0.00000E+00 0.00000E+00 0.00000E+00
 -1        44 7.62404E-05-7.56286E-04 9.91591E-05
 -1        45 1.33788E-05-5.84869E-04 1.75618E-04
 -1        46-1.88365E-05-4.26593E-04 2.01273E-04
 -1        47 2.47202E-05-1.71530E-04 1.32370E-04
 -1        48-2.47321E-05-1.71564E-04 1.32424E-04
 -1        49 1.88200E-05-4.26669E-04 2.01376E-04
 -1        50-1.35768E-05-5.84829E-04 1.75683E-04
 -1        51-7.66485E-05-7.55754E-04 9.92464E-05
 -1        74-8.94043E-05-7.32617E-04-9.97412E-05
 -1        75-2.29452E-05-5.73528E-04-1.76340E-04
 -1        76 2.42802E-05-4.33745E-04-2.01968E-04
 -1        77-2.22662E-05-1.75191E-04-1.32518E-04
 -1        89 8.91736E-05-7.32974E-04-9.96456E-05
 -1        90 2.27315E-05-5.73578E-04-1.76240E-04
 -1        91-2.43520E-05-4.33679E-04-2.01834E-04
 -1        92 2.22372E-05-1.75202E-04-1.32478E-04
 -1        98 0.00000E+00 0.00000E+00 0.00000E+00
 -1        99 0.00000E+00 0.00000E+00 0.00000E+00
 -1       100 0.00000E+00 0.00000E+00 0.00000E+00
 -1       101 0.00000E+00 0.00000E+00 0.00000E+00
 -1       102 0.00000E+00 0.00000E+00 0.00000E+00
 -1       124-5.93619E-06-6.75117E-04 9.18085E-05
 -1       125-1.96032E-07-8.31623E-04 9.87265E-05
 -1       126 5.70691E-06-6.74981E-04 9.17332E-05
 -1       127-6.76164E-08-6.10129E-04 1.91449E-04
 -1       128 1.68566E-06-4.51992E-04 2.18068E-04
 -1       129-2.56956E-08-4.13461E-04 2.22248E-04
 -1       130-1.75970E-06-4.52044E-04 2.18019E-04
 -1       131 5.33019E-09-1.72812E-04 1.27571E-04
 -1       153-6.59071E-05-9.17154E-04 4.30858E-05
 -1       154 1.16893E-07-8.05943E-04-4.65804E-07
 -1       155 6.88981E-05-9.11148E-04-4.38405E-05
 -1       156 2.29159E-06-6.57583E-04 7.58342E-07
 -1       157 1.37231E-05-3.67984E-04 8.58982E-05
 -1       158-1.34976E-06-3.79615E-04 4.05991E-07
 -1       159-1.44480E-05-3.70087E-04-8.62400E-05
 -1       160-5.65848E-07-1.42701E-04 1.14633E-08
 -1       182-7.11065E-06-6.85172E-04-9.25951E-05
 -1       183-1.31997E-07-8.17473E-04-9.92244E-05
 -1       184 6.93844E-06-6.84965E-04-9.25239E-05
 -1       185-7.23574E-08-6.07819E-04-1.93708E-04
 -1       186 3.05681E-06-4.49989E-04-2.18073E-04
 -1       187-5.01432E-08-4.16146E-04-2.23102E-04
 -1       188-3.15939E-06-4.50041E-04-2.18019E-04
 -1       189-3.92517E-09-1.73916E-04-1.27948E-04
 -1       211-6.92877E-05-9.11316E-04-4.37495E-05
 -1       212-3.08199E-09-8.06152E-04-5.00218E-07
 -1       213 6.56222E-05-9.17079E-04 4.32640E-05
 -1       214-2.21936E-06-6.57606E-04 8.44673E-07
 -1       215 1.43707E-05-3.70087E-04-8.61635E-05
 -1       216 1.09840E-06-3.79629E-04 4.81750E-07
 -1       217-1.38181E-05-3.68010E-04 8.59465E-05
 -1       218 4.94249E-07-1.42695E-04 4.07434E-08
 -1       250-8.17809E-08-8.91810E-04 4.28020E-05
 -1       251-1.11603E-07-5.43678E-04-4.09766E-07
 -1       252-2.13532E-09-7.03010E-04-4.07863E-07
 -1       253-1.04321E-07-5.43705E-04-3.68924E-07
 -1       254-1.02928E-07-8.86361E-04-4.31695E-05
 -1       255-9.23561E-08-6.48837E-04-2.08437E-07
 -1       256-2.76960E-08-3.59735E-04 9.73960E-05
 -1       257 5.28838E-07-4.28685E-04-1.61696E-07
 -1       258-1.52150E-08-3.72124E-04-1.15320E-07
 -1       259-6.00812E-07-4.28649E-04-1.92621E-07
 -1       260-2.84201E-08-3.60842E-04-9.75603E-05
 -1       261-1.54448E-08-1.61943E-04 6.60564E-08
 -3
    1PSTEP                         6           6           1          
  100CL  106 3.00000E-02          81                     1    6           1
 -4  DISP        4    1
 -5  D1          1    2    1    0
 -5  D2          1    2    2    0
 -5  D3          1    2    3    0
 -5  ALL         1    2    0    0    1ALL
 -1         5 0.00000E+00 0.00000E+00 0.00000E+00
 -1         6 0.00000E+00 0.00000E+00 0.00000E+00
 -1         7 0.00000E+00 0.00000E+00 0.00000E+00
 -1         8 0.00000E+00 0.00000E+00 0.00000E+00
 -1        21 0.00000E+00 0.00000E+00 0.00000E+00
 -1        22 0.00000E+00 0.00000E+00 0.00000E+00
 -1        23 0.00000E+00 0.00000E+00 0.00000E+00
 -1        24 0.00000E+00 0.00000E+00 0.00000E+00
 -1        25 0.00000E+00 0.00000E+00 0.00000E+00
 -1        26 0.00000E+00 0.00000E+00 0.00000E+00
 -1        27 0.00000E+00 0.00000E+00 0.00000E+00
 -1        28 0.00000E+00 0.00000E+00 0.00000E+00
 -1        29 0.00000E+00 0.00000E+00 0.00000E+00
 -1        30 0.00000E+00 0.00000E+00 0.00000E+00
 -1        31 0.00000E+00 0.00000E+00 0.00000E+00
 -1        32 0.00000E+00 0.00000E+00 0.00000E+00
 -1        44-5.94382E-05 5.48917E-04-6.71981E-05
 -1        45-9.85747E-06 4.23981E-04-1.28616E-04
 -1        46 1.46102E-05 3.13460E-04-1.46908E-04
 -1        47-1.73655E-05 1.25372E-04-9.64074E-05