    1C
    1UUSER                                                              
    1UDATE              17.july.2018                                    
    1UTIME              21:39:48                                        
    1UHOST                                                              
    1UPGM               CalculiX                                        
    1UVERSION           Version 2.13                             
    1UCOMPILETIME       jue jun 14 00:40:39 CEST 2018                    
    1UDIR                                                               
    1UDBN                                                               
    1UMAT    1EL                                                        
    2C                            81                                     1
 -1         5 0.00000E+00 0.00000E+00 8.00000E+00
 -1         6 1.00000E+00 0.00000E+00 8.00000E+00
 -1         7 1.00000E+00 1.00000E+00 8.00000E+00
 -1         8 0.00000E+00 1.00000E+00 8.00000E+00
 -1        21 2.50000E-01 0.00000E+00 8.00000E+00
 -1        22 5.00000E-01 0.00000E+00 8.00000E+00
 -1        23 7.50000E-01 0.00000E+00 8.00000E+00
 -1        24 1.00000E+00 2.50000E-01 8.00000E+00
 -1        25 1.00000E+00 5.00000E-01 8.00000E+00
 -1        26 1.00000E+00 7.50000E-01 8.00000E+00
 -1        27 7.50000E-01 1.00000E+00 8.00000E+00
 -1        28 5.00000E-01 1.00000E+00 8.00000E+00
 -1        29 2.50000E-01 1.00000E+00 8.00000E+00
 -1        30 0.00000E+00 7.50000E-01 8.00000E+00
 -1        31 0.00000E+00 5.00000E-01 8.00000E+00
 -1        32 0.00000E+00 2.50000E-01 8.00000E+00
 -1        44 1.00000E+00 0.00000E+00 6.00000E+00
 -1        45 1.00000E+00 0.00000E+00 6.50000E+00
 -1        46 1.00000E+00 0.00000E+00 7.00000E+00
 -1        47 1.00000E+00 0.00000E+00 7.50000E+00
 -1        48 0.00000E+00 0.00000E+00 7.50000E+00
 -1        49 0.00000E+00 0.00000E+00 7.00000E+00
 -1        50 0.00000E+00 0.00000E+00 6.50000E+00
 -1        51 0.00000E+00 0.00000E+00 6.00000E+00
 -1        74 1.00000E+00 1.00000E+00 6.00000E+00
 -1        75 1.00000E+00 1.00000E+00 6.50000E+00
 -1        76 1.00000E+00 1.00000E+00 7.00000E+00
 -1        77 1.00000E+00 1.00000E+00 7.50000E+00
 -1        89 0.00000E+00 1.00000E+00 6.00000E+00
 -1        90 0.00000E+00 1.00000E+00 6.50000E+00
 -1        91 0.00000E+00 1.00000E+00 7.00000E+00
 -1        92 0.00000E+00 1.00000E+00 7.50000E+00
 -1        98 5.00000E-01 2.50000E-01 8.00000E+00
 -1        99 2.50000E-01 5.00000E-01 8.00000E+00
 -1       100 5.00000E-01 5.00000E-01 8.00000E+00
 -1       101 7.50000E-01 5.00000E-01 8.00000E+00
 -1       102 5.00000E-01 7.50000E-01 8.00000E+00
 -1       124 2.50000E-01 0.00000E+00 6.00000E+00
 -1       125 5.00000E-01 0.00000E+00 6.00000E+00
 -1       126 7.50000E-01 0.00000E+00 6.00000E+00
 -1       127 5.00000E-01 0.00000E+00 6.50000E+00
 -1       128 2.50000E-01 0.00000E+00 7.00000E+00
 -1       129 5.00000E-01 0.00000E+00 7.00000E+00
 -1       130 7.50000E-01 0.00000E+00 7.00000E+00
 -1       131 5.00000E-01 0.00000E+00 7.50000E+00
 -1       153 1.00000E+00 2.50000E-01 6.00000E+00
 -1       154 1.00000E+00 5.00000E-01 6.00000E+00
 -1       155 1.00000E+00 7.50000E-01 6.00000E+00
 -1       156 1.00000E+00 5.00000E-01 6.50000E+00
 -1       157 1.00000E+00 2.50000E-01 7.00000E+00
 -1       158 1.00000E+00 5.00000E-01 7.00000E+00
 -1       159 1.00000E+00 7.50000E-01 7.00000E+00
 -1       160 1.00000E+00 5.00000E-01 7.50000E+00
 -1       182 7.50000E-01 1.00000E+00 6.00000E+00
 -1       183 5.00000E-01 1.00000E+00 6.00000E+00
 -1       184 2.50000E-01 1.00000E+00 6.00000E+00
 -1       185 5.00000E-01 1.00000E+00 6.50000E+00
 -1       186 7.50000E-01 1.00000E+00 7.00000E+00
 -1       187 5.00000E-01 1.00000E+00 7.00000E+00
 -1       188 2.50000E-01 1.00000E+00 7.00000E+00
 -1       189 5.00000E-01 1.00000E+00 7.50000E+00
 -1       211 0.00000E+00 7.50000E-01 6.00000E+00
 -1       212 0.00000E+00 5.00000E-01 6.00000E+00
 -1       213 0.00000E+00 2.50000E-01 6.00000E+00
 -1       214 0.00000E+00 5.00000E-01 6.50000E+00
 -1       215 0.00000E+00 7.50000E-01 7.00000E+00
 -1       216 0.00000E+00 5.00000E-01 7.00000E+00
 -1       217 0.00000E+00 2.50000E-01 7.00000E+00
 -1       218 0.00000E+00 5.00000E-01 7.50000E+00
 -1       250 5.00000E-01 2.50000E-01 6.00000E+00
 -1       251 2.50000E-01 5.00000E-01 6.00000E+00
 -1       252 5.00000E-01 5.00000E-01 6.00000E+00
 -1       253 7.50000E-01 5.00000E-01 6.00000E+00
 -1       254 5.00000E-01 7.50000E-01 6.00000E+00
 -1       255 5.00000E-01 5.00000E-01 6.50000E+00
 -1       256 5.00000E-01 2.50000E-01 7.00000E+00
 -1       257 2.50000E-01 5.00000E-01 7.00000E+00
 -1       258 5.00000E-01 5.00000E-01 7.00000E+00
 -1       259 7.50000E-01 5.00000E-01 7.00000E+00
 -1       260 5.00000E-01 7.50000E-01 7.00000E+00
 -1       261 5.00000E-01 5.00000E-01 7.50000E+00
 -3
    3C                             8                                     1
 -1        25    4    0    1
 -2        51       125       252       212        49       129       258       216       124       250
 -2       251       213        50       127       255       214       128       256       257       217
 -1        26    4    0    1
 -2       125        44       154       252       129        46       158       258       126       153
 -2       253       250       127        45       156       255       130       157       259       256
 -1        27    4    0    1
 -2       212       252       183        89       216       258       187        91       251       254
 -2       184       211       214       255       185        90       257       260       188       215
 -1        28    4    0    1
 -2       252       154        74       183       258       158        76       187       253       155
 -2       182       254       255       156        75       185       259       159       186       260
 -1        29    4    0    1
 -2        49       129       258       216         5        22       100        31       128       256
 -2       257       217        48       131       261       218        21        98        99        32
 -1        30    4    0    1
 -2       129        46       158       258        22         6        25       100       130       157
 -2       259       256       131        47       160       261        23        24       101        98
 -1        31    4    0    1
 -2       216       258       187        91        31       100        28         8       257       260
 -2       188       215       218       261       189        92        99       102        29        30
 -1        32    4    0    1
 -2       258       158        76       187       100        25         7        28       259       159
 -2       186       260       261       160        77       189       101        26        27       102
 -3
    1PSTEP                         1           1           1          
  100CL  101 5.00000E-03          81                     1    1           1
 -4  DISP        4    1
 -5  D1          1    2    1    0
 -5  D2          1    2    2    0
 -5  D3          1    2    3    0
 -5  ALL         1    2    0    0    1ALL
 -1         5 0.00000E+00 0.00000E+00 0.00000E+00
 -1         6 0.00000E+00 0.00000E+00 0.00000E+00
 -1         7 0.00000E+00 0.00000E+00 0.00000E+00
 -1         8 0.00000E+00 0.00000E+00 0.00000E+00
 -1        21 0.00000E+00 0.00000E+00 0.00000E+00
 -1        22 0.00000E+00 0.00000E+00 0.00000E+00
 -1        23 0.00000E+00 0.00000E+00 0.00000E+00
 -1        24 0.00000E+00 0.00000E+00 0.00000E+00
 -1        25 0.00000E+00 0.00000E+00 0.00000E+00
 -1        26 0.00000E+00 0.00000E+00 0.00000E+00
 -1        27 0.00000E+00 0.00000E+00 0.00000E+00
 -1        28 0.00000E+00 0.00000E+00 0.00000E+00
 -1        29 0.00000E+00 0.00000E+00 0.00000E+00
 -1        30 0.00000E+00 0.00000E+00 0.00000E+00
 -1        31 0.00000E+00 0.00000E+00 0.00000E+00
 -1        32 0.00000E+00 0.00000E+00 0.00000E+00
 -1        44-5.97809E-05-3.46573E-03 4.48604E-04
 -1        45 5.68753E-05-2.56234E-03 7.85645E-04
 -1        46-4.77618E-05-1.79595E-03 9.49404E-04
 -1        47 1.30981E-04-6.75051E-04 5.43226E-04
 -1        48-1.30981E-04-6.75051E-04 5.43225E-04
 -1        49 4.77637E-05-1.79595E-03 9.49402E-04
 -1        50-5.68687E-05-2.56234E-03 7.85639E-04
 -1        51 5.97939E-05-3.46572E-03 4.48590E-04
 -1        74 3.18565E-04-4.41241E-03-4.94549E-04
 -1        75 1.90922E-04-2.97232E-03-7.84897E-04
 -1        76-1.10264E-04-1.59781E-03-9.50009E-04
 -1        77-2.07864E-04-5.26736E-04-5.58212E-04
 -1        89-3.18537E-04-4.41241E-03-4.94565E-04
 -1        90-1.90921E-04-2.97232E-03-7.84903E-04
 -1        91 1.10269E-04-1.59781E-03-9.50011E-04
 -1        92 2.07863E-04-5.26736E-04-5.58212E-04
 -1        98 0.00000E+00 0.00000E+00 0.00000E+00
 -1        99 0.00000E+00 0.00000E+00 0.00000E+00
 -1       100 0.00000E+00 0.00000E+00 0.00000E+00
 -1       101 0.00000E+00 0.00000E+00 0.00000E+00
 -1       102 0.00000E+00 0.00000E+00 0.00000E+00
 -1       124 1.49411E-04-2.96654E-03 4.29686E-04
 -1       125 7.00629E-09-3.58966E-03 4.48642E-04
 -1       126-1.49398E-04-2.96654E-03 4.29694E-04
 -1       127 2.55271E-09-2.56286E-03 9.03735E-04
 -1       128-9.11859E-06-1.95297E-03 9.48281E-04
 -1       129 1.29783E-09-1.81459E-03 9.41628E-04
 -1       130 9.12078E-06-1.95297E-03 9.48283E-04
 -1       131-3.32662E-11-7.36472E-04 5.56428E-04
 -1       153 6.99387E-05-3.63654E-03 1.91239E-04
 -1       154-1.20347E-04-2.50318E-03-2.08529E-05
 -1       155-6.49463E-05-3.88931E-03-2.37839E-04
 -1       156-1.20290E-04-2.78968E-03-6.46452E-05
 -1       157-2.05266E-05-1.50905E-03 3.92433E-04
 -1       158 8.84902E-05-1.56704E-03-2.93858E-05
 -1       159 4.67559E-05-1.47567E-03-4.11116E-04
 -1       160 3.98199E-05-6.56563E-04 4.91047E-06
 -1       182 1.14662E-04-2.56286E-03-4.71124E-04
 -1       183 2.37301E-09-4.35550E-03-4.76672E-04
 -1       184-1.14646E-04-2.56286E-03-4.71122E-04
 -1       185 5.24394E-09-2.83361E-03-8.74093E-04
 -1       186-4.40604E-05-2.16248E-03-9.82806E-04
 -1       187-1.59072E-09-1.83181E-03-9.63874E-04
 -1       188 4.40613E-05-2.16248E-03-9.82809E-04
 -1       189 7.30520E-11-7.19959E-04-5.64580E-04
 -1       211 6.49745E-05-3.88931E-03-2.37855E-04
 -1       212 1.20373E-04-2.50318E-03-2.08674E-05
 -1       213-6.99193E-05-3.63654E-03 1.91228E-04
 -1       214 1.20293E-04-2.78967E-03-6.46519E-05
 -1       215-4.67511E-05-1.47567E-03-4.11118E-04
 -1       216-8.84854E-05-1.56704E-03-2.93881E-05
 -1       217 2.05300E-05-1.50905E-03 3.92430E-04
 -1       218-3.98198E-05-6.56564E-04 4.91058E-06
 -1       250 5.65410E-09-4.08228E-03 1.74410E-04
 -1       251 3.03580E-05-2.57233E-03-1.03658E-05
 -1       252 3.50820E-09-3.12415E-03-1.60182E-05
 -1       253-3.03423E-05-2.57233E-03-1.03666E-05
 -1       254 2.44866E-09-4.41352E-03-2.54551E-04
 -1       255 4.68001E-09-2.59951E-03-3.20723E-05
 -1       256 2.35911E-10-1.60751E-03 3.95697E-04
 -1       257-4.11477E-05-1.74949E-03-1.20402E-05
 -1       258-7.10012E-10-1.79050E-03-1.45559E-05
 -1       259 4.11494E-05-1.74949E-03-1.20373E-05
 -1       260-1.01087E-09-1.62259E-03-4.18302E-04
 -1       261 2.94007E-10-7.17064E-04-1.97953E-06
 -3
    1PSTEP                         2           2           1          
  100CL  102 1.00000E-02          81                     1    2           1
 -4  DISP        4    1
 -5  D1          1    2    1    0
 -5  D2          1    2    2    0
 -5  D3          1    2    3    0
 -5  ALL         1    2    0    0    1ALL
 -1         5 0.00000E+00 0.00000E+00 0.00000E+00
 -1         6 0.00000E+00 0.00000E+00 0.00000E+00
 -1         7 0.00000E+00 0.00000E+00 0.00000E+00
 -1         8 0.00000E+00 0.00000E+00 0.00000E+00
 -1        21 0.00000E+00 0.00000E+00 0.00000E+00
 -1        22 0.00000E+00 0.00000E+00 0.00000E+00
 -1        23 0.00000E+00 0.00000E+00 0.00000E+00
 -1        24 0.00000E+00 0.00000E+00 0.00000E+00
 -1        25 0.00000E+00 0.00000E+00 0.00000E+00
 -1        26 0.00000E+00 0.00000E+00 0.00000E+00
 -1        27 0.00000E+00 0.00000E+00 0.00000E+00
 -1        28 0.00000E+00 0.00000E+00 0.00000E+00
 -1        29 0.00000E+00 0.00000E+00 0.00000E+00
 -1        30 0.00000E+00 0.00000E+00 0.00000E+00
 -1        31 0.00000E+00 0.00000E+00 0.00000E+00
 -1        32 0.00000E+00 0.00000E+00 0.00000E+00
 -1        44-1.52524E-04 1.60681E-03-2.33988E-04
 -1        45-3.58701E-05 1.24778E-03-3.77347E-04
 -1        46 4.21686E-05 9.15168E-04-4.32283E-04
 -1        47-5.37269E-05 3.70242E-04-2.84028E-04
 -1        48 5.37314E-05 3.70250E-04-2.84035E-04
 -1        49-4.21706E-05 9.15155E-04-4.32286E-04
 -1        50 3.59170E-05 1.24780E-03-3.77360E-04
 -1        51 1.52561E-04 1.60671E-03-2.33946E-04
 -1        74 1.48102E-04 1.61305E-03 2.34192E-04
 -1        75 3.31696E-05 1.25110E-03 3.77381E-04
 -1        76-4.02235E-05 9.13130E-04 4.32330E-04
 -1        77 5.46107E-05 3.69156E-04 2.84110E-04
 -1        89-1.48033E-04 1.61313E-03 2.34193E-04
 -1        90-3.31210E-05 1.25111E-03 3.77360E-04
 -1        91 4.02287E-05 9.13138E-04 4.32329E-04
 -1        92-5.46047E-05 3.69152E-04 2.84106E-04
 -1        98 0.00000E+00 0.00000E+00 0.00000E+00
 -1        99 0.00000E+00 0.00000E+00 0.00000E+00
 -1       100 0.00000E+00 0.00000E+00 0.00000E+00
 -1       101 0.00000E+00 0.00000E+00 0.00000E+00
 -1       102 0.00000E+00 0.00000E+00 0.00000E+00
 -1       124 3.24803E-06 1.48054E-03-2.20449E-04
 -1       125 4.64826E-08 1.76725E-03-2.31378E-04
 -1       126-3.18884E-06 1.48058E-03-2.20469E-04
 -1       127 1.41344E-08 1.30179E-03-4.17420E-04
 -1       128-3.24034E-06 9.58929E-04-4.63517E-04
 -1       129 9.88066E-09 8.89103E-04-4.72326E-04
 -1       130 3.25066E-06 9.58939E-04-4.63516E-04
 -1       131-5.15135E-11 3.75447E-04-2.76015E-04
 -1       153 1.25300E-04 1.91909E-03-1.03847E-04
 -1       154-3.16443E-07 1.69462E-03 1.29901E-07
 -1       155-1.24015E-04 1.91828E-03 1.04085E-04
 -1       156 4.26605E-07 1.40671E-03 4.97877E-07
 -1       157-2.50454E-05 7.92877E-04-1.85987E-04
 -1       158-3.43274E-07 8.09870E-04 1.95872E-07
 -1       159 2.46227E-05 7.92875E-04 1.86067E-04
 -1       160-1.22720E-07 3.08160E-04 3.68720E-11
 -1       182 4.62225E-06 1.47810E-03 2.20658E-04
 -1       183 5.23289E-08 1.77108E-03 2.31539E-04
 -1       184-4.54240E-06 1.47813E-03 2.20673E-04
 -1       185 1.78923E-08 1.30247E-03 4.16991E-04
 -1       186-3.16070E-06 9.60074E-04 4.63692E-04
 -1       187 1.13108E-08 8.89760E-04 4.72284E-04
 -1       188 3.17603E-06 9.60082E-04 4.63689E-04
 -1       189 1.07614E-09 3.75501E-04 2.76030E-04
 -1       211 1.24065E-04 1.91833E-03 1.04075E-04
 -1       212 3.72729E-07 1.69463E-03 6.48520E-08
 -1       213-1.25265E-04 1.91904E-03-1.03847E-04
 -1       214-3.99198E-07 1.40671E-03 4.71412E-07
 -1       215-2.46058E-05 7.92878E-04 1.86052E-04
 -1       216 3.66190E-07 8.09875E-04 1.81729E-07
 -1       217 2.50586E-05 7.92877E-04-1.86000E-04
 -1       218 1.27112E-07 3.08160E-04-6.51380E-09
 -1       250 2.33383E-08 1.90701E-03-1.03084E-04
 -1       251 1.20246E-06 1.20906E-03-2.81128E-09
 -1       252-8.61025E-10 1.54329E-03 7.91079E-08
 -1       253-1.17126E-06 1.20905E-03 4.42652E-08
 -1       254 2.77551E-08 1.91073E-03 1.03521E-04
 -1       255 1.31357E-08 1.37573E-03 1.30269E-07
 -1       256 8.15613E-09 7.83517E-04-2.07307E-04
 -1       257-2.61656E-08 9.14091E-04 6.05704E-08
 -1       258 6.42082E-09 8.11875E-04 7.85487E-08
 -1       259 4.25199E-08 9.14089E-04 6.45763E-08
 -1       260 8.47106E-09 7.83404E-04 2.07431E-04
 -1       261 3.50378E-09 3.48268E-04-4.53614E-09
 -3
    1PSTEP                         3           3           1          
  100CL  103 1.50000E-02          81                     1    3           1
 -4  DISP        4    1
 -5  D1          1    2    1    0
 -5  D2          1    2    2    0
 -5  D3          1    2    3    0
 -5  ALL         1    2    0    0    1ALL
 -1         5 0.00000E+00 0.00000E+00 0.00000E+00
 -1         6 0.00000E+00 0.00000E+00 0.00000E+00
 -1         7 0.00000E+00 0.00000E+00 0.00000E+00
 -1         8 0.00000E+00 0.00000E+00 0.00000E+00
 -1        21 0.00000E+00 0.00000E+00 0.00000E+00
 -1        22 0.00000E+00 0.00000E+00 0.00000E+00
 -1        23 0.00000E+00 0.00000E+00 0.00000E+00
 -1        24 0.00000E+00 0.00000E+00 0.00000E+00
 -1        25 0.00000E+00 0.00000E+00 0.00000E+00
 -1        26 0.00000E+00 0.00000E+00 0.00000E+00
 -1        27 0.00000E+00 0.00000E+00 0.00000E+00
 -1        28 0.00000E+00 0.00000E+00 0.00000E+00
 -1        29 0.00000E+00 0.00000E+00 0.00000E+00
 -1        30 0.00000E+00 0.00000E+00 0.00000E+00
 -1        31 0.00000E+00 0.00000E+00 0.00000E+00
 -1        32 0.00000E+00 0.00000E+00 0.00000E+00
 -1        44 1.24429E-04-1.27006E-03 1.85433E-04
 -1        45 2.95262E-05-9.87382E-04 2.98974E-04
 -1        46-3.41112E-05-7.25607E-04 3.42041E-04
 -1        47 4.21094E-05-2.93972E-04 2.25151E-04
 -1        48-4.21157E-05-2.94004E-04 2.25220E-04
 -1        49 3.41392E-05-7.25641E-04 3.42108E-04
 -1        50-2.98369E-05-9.87298E-04 2.98989E-04
 -1        51-1.24937E-04-1.26960E-03 1.85522E-04
 -1        74-1.20692E-04-1.27385E-03-1.85588E-04
 -1        75-2.73952E-05-9.89669E-04-2.99085E-04
 -1        76 3.27648E-05-7.24337E-04-3.42111E-04
 -1        77-4.28297E-05-2.93308E-04-2.25212E-04
 -1        89 1.20263E-04-1.27425E-03-1.85497E-04
 -1        90 2.70581E-05-9.89775E-04-2.99059E-04
 -1        91-3.27232E-05-7.24299E-04-3.42057E-04
 -1        92 4.28187E-05-2.93276E-04-2.25145E-04
 -1        98 0.00000E+00 0.00000E+00 0.00000E+00
 -1        99 0.00000E+00 0.00000E+00 0.00000E+00
 -1       100 0.00000E+00 0.00000E+00 0.00000E+00
 -1       101 0.00000E+00 0.00000E+00 0.00000E+00
 -1       102 0.00000E+00 0.00000E+00 0.00000E+00
 -1       124-5.15050E-06-1.17383E-03 1.74854E-04
 -1       125-3.54746E-07-1.39918E-03 1.83461E-04
 -1       126 4.63288E-06-1.17388E-03 1.74762E-04
 -1       127-5.97516E-08-1.03163E-03 3.30557E-04
 -1       128 3.00331E-06-7.59355E-04 3.67153E-04
 -1       129-7.71571E-08-7.04420E-04 3.74384E-04
 -1       130-3.08855E-06-7.59377E-04 3.67136E-04
 -1       131 9.31689E-09-2.97466E-04 2.18649E-04
 -1       153-1.01780E-04-1.52049E-03 8.23295E-05
 -1       154 7.05052E-07-1.34770E-03-1.34552E-09
 -1       155 9.99748E-05-1.52150E-03-8.24929E-05
 -1       156-1.10268E-07-1.11419E-03-3.30722E-07
 -1       157 2.03391E-05-6.29066E-04 1.47218E-04
 -1       158-9.95506E-08-6.42371E-04-1.43938E-07
 -1       159-2.00783E-05-6.28672E-04-1.47256E-04
 -1       160-4.59702E-09-2.43981E-04-1.80360E-08
 -1       182-3.90995E-06-1.17248E-03-1.74912E-04
 -1       183-3.78089E-07-1.40075E-03-1.83662E-04
 -1       184 3.40478E-06-1.17248E-03-1.74801E-04
 -1       185-5.09819E-08-1.03141E-03-3.30072E-04
 -1       186 2.55079E-06-7.59711E-04-3.67194E-04
 -1       187-9.20954E-08-7.04452E-04-3.74179E-04
 -1       188-2.64366E-06-7.59734E-04-3.67188E-04
 -1       189 9.56231E-09-2.97520E-04-2.18620E-04
 -1       211-1.00195E-04-1.52183E-03-8.24001E-05
 -1       212-9.94354E-07-1.34769E-03-2.85853E-08
 -1       213 1.01513E-04-1.52013E-03 8.24848E-05
 -1       214 3.59509E-08-1.11418E-03-2.09239E-07
 -1       215 1.99973E-05-6.28629E-04-1.47194E-04
 -1       216-4.68904E-08-6.42380E-04-5.20537E-08
 -1       217-2.04258E-05-6.29116E-04 1.47273E-04
 -1       218-1.35517E-08-2.43982E-04-8.32143E-09
 -1       250-1.27666E-07-1.50961E-03 8.17960E-05
 -1       251-9.65342E-08-9.57706E-04-2.34821E-08
 -1       252 1.53850E-07-1.22094E-03-7.23417E-08
 -1       253 5.51991E-08-9.57706E-04 6.04827E-08
 -1       254-1.44211E-07-1.50970E-03-8.19664E-05
 -1       255-9.17191E-08-1.09076E-03-2.06462E-08
 -1       256-2.74550E-08-6.20345E-04 1.64376E-04
 -1       257-8.04668E-08-7.24551E-04 3.07763E-08
 -1       258 1.07774E-08-6.42340E-04 2.57144E-09
 -1       259 3.61764E-08-7.24548E-04-3.30658E-08
 -1       260-3.40589E-08-6.20498E-04-1.64398E-04
 -1       261-2.86639E-08-2.75909E-04 3.74972E-09
 -3
    1PSTEP                         4           4           1          
  100CL  104 2.00000E-02          81                     1    4           1
 -4  DISP        4    1
 -5  D1          1    2    1    0
 -5  D2          1    2    2    0
 -5  D3          1    2    3    0
 -5  ALL         1    2    0    0    1ALL
 -1         5 0.00000E+00 0.00000E+00 0.00000E+00
 -1         6 0.00000E+00 0.00000E+00 0.00000E+00
 -1         7 0.00000E+00 0.00000E+00 0.00000E+00
 -1         8 0.00000E+00 0.00000E+00 0.00000E+00
 -1        21 0.00000E+00 0.00000E+00 0.00000E+00
 -1        22 0.00000E+00 0.00000E+00 0.00000E+00
 -1        23 0.00000E+00 0.00000E+00 0.00000E+00
 -1        24 0.00000E+00 0.00000E+00 0.00000E+00
 -1        25 0.00000E+00 0.00000E+00 0.00000E+00
 -1        26 0.00000E+00 0.00000E+00 0.00000E+00
 -1        27 0.00000E+00 0.00000E+00 0.00000E+00
 -1        28 0.00000E+00 0.00000E+00 0.00000E+00
 -1        29 0.00000E+00 0.00000E+00 0.00000E+00
 -1        30 0.00000E+00 0.00000E+00 0.00000E+00
 -1        31 0.00000E+00 0.00000E+00 0.00000E+00
 -1        32 0.00000E+00 0.00000E+00 0.00000E+00
 -1        44-9.85187E-05 9.85198E-04-1.44156E-04
 -1        45-2.36260E-05 7.66243E-04-2.32313E-04
 -1        46 2.67405E-05 5.63717E-04-2.65621E-04
 -1        47-3.25306E-05 2.28459E-04-1.74941E-04
 -1        48 3.25265E-05 2.28457E-04-1.74920E-04
 -1        49-2.67303E-05 5.63713E-04-2.65592E-04
 -1        50 2.35589E-05 7.66258E-04-2.32330E-04
 -1        51 9.84814E-05 9.85260E-04-1.44176E-04
 -1        74 9.48968E-05 9.88503E-04 1.44147E-04
 -1        75 2.15885E-05 7.68226E-04 2.32316E-04
 -1        76-2.58235E-05 5.62796E-04 2.65620E-04
 -1        77 3.30915E-05 2.27915E-04 1.74929E-04
 -1        89-9.49169E-05 9.88464E-04 1.44134E-04
 -1        90-2.16444E-05 7.68209E-04 2.32304E-04
 -1        91 2.58358E-05 5.62808E-04 2.65635E-04
 -1        92-3.30942E-05 2.27920E-04 1.74943E-04
 -1        98 0.00000E+00 0.00000E+00 0.00000E+00
 -1        99 0.00000E+00 0.00000E+00 0.00000E+00
 -1       100 0.00000E+00 0.00000E+00 0.00000E+00
 -1       101 0.00000E+00 0.00000E+00 0.00000E+00
 -1       102 0.00000E+00 0.00000E+00 0.00000E+00
 -1       124 4.83900E-06 9.11961E-04-1.35882E-04
 -1       125-6.30404E-08 1.08678E-03-1.42606E-04
 -1       126-4.90953E-06 9.11962E-04-1.35932E-04
 -1       127-1.80657E-09 8.01520E-04-2.56824E-04
 -1       128-2.55351E-06 5.89590E-04-2.85188E-04
 -1       129-2.04804E-08 5.46868E-04-2.90908E-04
 -1       130 2.53493E-06 5.89586E-04-2.85188E-04
 -1       131 8.71147E-10 2.30877E-04-1.69776E-04
 -1       153 7.98800E-05 1.18085E-03-6.40904E-05
 -1       154-7.85560E-07 1.04833E-03 4.83173E-10
 -1       155-7.86069E-05 1.18334E-03 6.40909E-05
 -1       156-1.12002E-08 8.65233E-04 1.92484E-07
 -1       157-1.60708E-05 4.88774E-04-1.14342E-04
 -1       158 1.20053E-07 4.99032E-04 6.60671E-08
 -1       159 1.57807E-05 4.88146E-04 1.14303E-04
 -1       160 1.87334E-09 1.89349E-04 1.07542E-08
 -1       182 2.19620E-06 9.10869E-04 1.35898E-04
 -1       183-5.17782E-08 1.08800E-03 1.42651E-04
 -1       184-2.24734E-06 9.10882E-04 1.35924E-04
 -1       185-2.23420E-09 8.01270E-04 2.56481E-04
 -1       186-1.92420E-06 5.89828E-04 2.85209E-04
 -1       187-1.76490E-08 5.46793E-04 2.90735E-04
 -1       188 1.90949E-06 5.89828E-04 2.85208E-04
 -1       189 1.72096E-09 2.30933E-04 1.69750E-04
 -1       211 7.86054E-05 1.18330E-03 6.40824E-05
 -1       212 7.58505E-07 1.04833E-03-5.43901E-08
 -1       213-7.98926E-05 1.18090E-03-6.40556E-05
 -1       214-1.79257E-09 8.65243E-04 2.00866E-07
 -1       215-1.57898E-05 4.88155E-04 1.14311E-04
 -1       216-1.42323E-07 4.99031E-04 8.12327E-08
 -1       217 1.60608E-05 4.88768E-04-1.14337E-04
 -1       218-6.30528E-09 1.89350E-04 1.45506E-08
 -1       250-2.81680E-08 1.17248E-03-6.36521E-05
 -1       251-6.28792E-07 7.43765E-04-2.42260E-08
 -1       252 1.78526E-08 9.47713E-04 4.72052E-08
 -1       253 6.25880E-07 7.43766E-04 2.04487E-08
 -1       254-2.24719E-08 1.17122E-03 6.36594E-05
 -1       255-1.39369E-08 8.47352E-04-1.02416E-08
 -1       256-9.46999E-09 4.81450E-04-1.27733E-04
 -1       257 1.51372E-07 5.62741E-04-3.32404E-09
 -1       258-6.93637E-10 4.98512E-04-3.07677E-09
 -1       259-1.60624E-07 5.62741E-04-1.51466E-08
 -1       260-8.23907E-09 4.81817E-04 1.27763E-04
 -1       261-4.73006E-09 2.14211E-04-5.84894E-09
 -3
    1PSTEP                         5           5           1          
  100CL  105 2.50000E-02          81                     1    5           1
 -4  DISP        4    1
 -5  D1          1    2    1    0
 -5  D2          1    2    2    0
 -5  D3          1    2    3    0
 -5  ALL         1    2    0    0    1ALL
 -1         5 0.00000E+00 0.00000E+00 0.00000E+00
 -1         6 0.00000E+00 0.00000E+00 0.00000E+00
 -1         7 0.00000E+00 0.00000E+00 0.00000E+00
 -1         8 0.00000E+00 0.00000E+00 0.00000E+00
 -1        21 0.00000E+00 0.00000E+00 0.00000E+00
 -1        22 0.00000E+00 0.00000E+00 0.00000E+00
 -1        23 0.00000E+00 0.00000E+00 0.00000E+00
 -1        24 0.00000E+00 0.00000E+00 0.00000E+00
 -1        25 0.00000E+00 0.00000E+00 0.00000E+00
 -1        26 0.00000E+00 0.00000E+00 0.00000E+00
 -1        27 0.00000E+00 0.00000E+00 0.00000E+00
 -1        28 0.00000E+00 0.00000E+00 0.00000E+00
 -1        29 0.00000E+00 0.00000E+00 0.00000E+00
 -1        30 0.00000E+00 0.00000E+00 0.00000E+00
 -1        31 0.00000E+00 0.00000E+00 0.00000E+00
 -1        32 0.00000E+00 0.00000E+00 0.00000E+00
 -1        44 7.43264E-05-7.43665E-04 1.08811E-04
 -1        45 1.78340E-05-5.78429E-04 1.75360E-04
 -1        46-2.02271E-05-4.25551E-04 2.00508E-04
 -1        47 2.45369E-05-1.72471E-04 1.32040E-04
 -1        48-2.45405E-05-1.72483E-04 1.32066E-04
 -1        49 2.02376E-05-4.25561E-04 2.00533E-04
 -1        50-1.79550E-05-5.78398E-04 1.75370E-04
 -1        51-7.45106E-05-7.43497E-04 1.08843E-04
 -1        74-7.14950E-05-7.46344E-04-1.08859E-04
 -1        75-1.62574E-05-5.80058E-04-1.75398E-04
 -1        76 1.93958E-05-4.24742E-04-2.00538E-04
 -1        77-2.50259E-05-1.72013E-04-1.32059E-04
 -1        89 7.13145E-05-7.46488E-04-1.08813E-04
 -1        90 1.61421E-05-5.80093E-04-1.75386E-04
 -1        91-1.93858E-05-4.24726E-04-2.00517E-04
 -1        92 2.50232E-05-1.72001E-04-1.32037E-04
 -1        98 0.00000E+00 0.00000E+00 0.00000E+00
 -1        99 0.00000E+00 0.00000E+00 0.00000E+00
 -1       100 0.00000E+00 0.00000E+00 0.00000E+00
 -1       101 0.00000E+00 0.00000E+00 0.00000E+00
 -1       102 0.00000E+00 0.00000E+00 0.00000E+00
 -1       124-3.72794E-06-6.88540E-04 1.02642E-04
 -1       125-1.37716E-07-8.20285E-04 1.07666E-04
 -1       126 3.53076E-06-6.88555E-04 1.02604E-04
 -1       127-2.25117E-08-6.04957E-04 1.93925E-04
 -1       128 1.90696E-06-4.45057E-04 2.15288E-04
 -1       129-3.07184E-08-4.12915E-04 2.19612E-04
 -1       130-1.94028E-06-4.45067E-04 2.15283E-04
 -1       131 3.21768E-09-1.74314E-04 1.28170E-04
 -1       153-6.03631E-05-8.91382E-04 4.83508E-05
 -1       154 5.82573E-07-7.91389E-04 1.49477E-08
 -1       155 5.91608E-05-8.92939E-04-4.84023E-05
 -1       156-2.65599E-08-6.53242E-04-1.95942E-07
 -1       157 1.21154E-05-3.68944E-04 8.63189E-05
 -1       158-1.07178E-07-3.76644E-04-7.71941E-08
 -1       159-1.19067E-05-3.68510E-04-8.63145E-05
 -1       160-6.30037E-09-1.42921E-04-1.02915E-08
 -1       182-1.98239E-06-6.87608E-04-1.02626E-04
 -1       183-1.30924E-07-8.21293E-04-1.07708E-04
 -1       184 1.79366E-06-6.87611E-04-1.02593E-04
 -1       185-2.26531E-08-6.04766E-04-1.93593E-04
 -1       186 1.45586E-06-4.45270E-04-2.15314E-04
 -1       187-2.93520E-08-4.12870E-04-2.19473E-04
 -1       188-1.48799E-06-4.45276E-04-2.15308E-04
 -1       189 3.45882E-09-1.74355E-04-1.28151E-04
 -1       211-5.92609E-05-8.93060E-04-4.83580E-05
 -1       212-7.00907E-07-7.91393E-04 1.30964E-08
 -1       213 6.02587E-05-8.91254E-04 4.84120E-05
 -1       214-2.38564E-09-6.53236E-04-1.48590E-07
 -1       215 1.18739E-05-3.68493E-04-8.62911E-05
 -1       216 5.19856E-08-3.76647E-04-4.25932E-08
 -1       217-1.21477E-05-3.68960E-04 8.63403E-05
 -1       218-2.89173E-10-1.42921E-04-6.44922E-09
 -1       250-5.27786E-08-8.85226E-04 4.80126E-05
 -1       251 3.09803E-07-5.61438E-04 6.95075E-09
 -1       252 5.28392E-08-7.15574E-04-1.97241E-08
 -1       253-3.33870E-07-5.61435E-04 3.65282E-08
 -1       254-4.96982E-08-8.84543E-04-4.80927E-05
 -1       255-3.55602E-08-6.39665E-04 1.43461E-08
 -1       256-1.12182E-08-3.63470E-04 9.64258E-05
 -1       257-1.07852E-07-4.24815E-04 1.83801E-08
 -1       258 4.02431E-09-3.76347E-04 1.85888E-09
 -1       259 9.08135E-08-4.24814E-04-6.10870E-09
 -1       260-1.04866E-08-3.63700E-04-9.64328E-05
 -1       261-1.04102E-08-1.61704E-04 9.89246E-10
 -3
    1PSTEP                         6           6           1          
  100CL  106 3.00000E-02          81                     1    6           1
 -4  DISP        4    1
 -5  D1          1    2    1    0
 -5  D2          1    2    2    0
 -5  D3          1    2    3    0
 -5  ALL         1    2    0    0    1ALL
 -1         5 0.00000E+00 0.00000E+00 0.00000E+00
 -1         6 0.00000E+00 0.00000E+00 0.00000E+00
 -1         7 0.00000E+00 0.00000E+00 0.00000E+00
 -1         8 0.00000E+00 0.00000E+00 0.00000E+00
 -1        21 0.00000E+00 0.00000E+00 0.00000E+00
 -1        22 0.00000E+00 0.00000E+00 0.00000E+00
 -1        23 0.00000E+00 0.00000E+00 0.00000E+00
 -1        24 0.00000E+00 0.00000E+00 0.00000E+00
 -1        25 0.00000E+00 0.00000E+00 0.00000E+00
 -1        26 0.00000E+00 0.00000E+00 0.00000E+00
 -1        27 0.00000E+00 0.00000E+00 0.00000E+00
 -1        28 0.00000E+00 0.00000E+00 0.00000E+00
 -1        29 0.00000E+00 0.00000E+00 0.00000E+00
 -1        30 0.00000E+00 0.00000E+00 0.00000E+00
 -1        31 0.00000E+00 0.00000E+00 0.00000E+00
 -1        32 0.00000E+00 0.00000E+00 0.00000E+00
 -1        44-5.43118E-05 5.38305E-04-7.88220E-05
 -1        45-1.30716E-05 4.18824E-04-1.27061E-04
 -1        46 1.47818E-05 3.08768E-04-1.45277E-04
 -1        47-1.77263E-05 1.25155E-04-9.57398E-05