    1C
    1UUSER                                                              
    1UDATE              17.july.2018                                    
    1UTIME              21:46:47                                        
    1UHOST                                                              
    1UPGM               CalculiX                                        
    1UVERSION           Version 2.13                             
    1UCOMPILETIME       jue jun 14 00:40:39 CEST 2018                    
    1UDIR                                                               
    1UDBN                                                               
    1UMAT    1EL                                                        
    2C                            81                                     1
 -1         5 0.00000E+00 0.00000E+00 8.00000E+00
 -1         6 1.00000E+00 0.00000E+00 8.00000E+00
 -1         7 1.00000E+00 1.00000E+00 8.00000E+00
 -1         8 0.00000E+00 1.00000E+00 8.00000E+00
 -1        21 2.50000E-01 0.00000E+00 8.00000E+00
 -1        22 5.00000E-01 0.00000E+00 8.00000E+00
 -1        23 7.50000E-01 0.00000E+00 8.00000E+00
 -1        24 1.00000E+00 2.50000E-01 8.00000E+00
 -1        25 1.00000E+00 5.00000E-01 8.00000E+00
 -1        26 1.00000E+00 7.50000E-01 8.00000E+00
 -1        27 7.50000E-01 1.00000E+00 8.00000E+00
 -1        28 5.00000E-01 1.00000E+00 8.00000E+00
 -1        29 2.50000E-01 1.00000E+00 8.00000E+00
 -1        30 0.00000E+00 7.50000E-01 8.00000E+00
 -1        31 0.00000E+00 5.00000E-01 8.00000E+00
 -1        32 0.00000E+00 2.50000E-01 8.00000E+00
 -1        44 1.00000E+00 0.00000E+00 6.00000E+00
 -1        45 1.00000E+00 0.00000E+00 6.50000E+00
 -1        46 1.00000E+00 0.00000E+00 7.00000E+00
 -1        47 1.00000E+00 0.00000E+00 7.50000E+00
 -1        48 0.00000E+00 0.00000E+00 7.50000E+00
 -1        49 0.00000E+00 0.00000E+00 7.00000E+00
 -1        50 0.00000E+00 0.00000E+00 6.50000E+00
 -1        51 0.00000E+00 0.00000E+00 6.00000E+00
 -1        74 1.00000E+00 1.00000E+00 6.00000E+00
 -1        75 1.00000E+00 1.00000E+00 6.50000E+00
 -1        76 1.00000E+00 1.00000E+00 7.00000E+00
 -1        77 1.00000E+00 1.00000E+00 7.50000E+00
 -1        89 0.00000E+00 1.00000E+00 6.00000E+00
 -1        90 0.00000E+00 1.00000E+00 6.50000E+00
 -1        91 0.00000E+00 1.00000E+00 7.00000E+00
 -1        92 0.00000E+00 1.00000E+00 7.50000E+00
 -1        98 5.00000E-01 2.50000E-01 8.00000E+00
 -1        99 2.50000E-01 5.00000E-01 8.00000E+00
 -1       100 5.00000E-01 5.00000E-01 8.00000E+00
 -1       101 7.50000E-01 5.00000E-01 8.00000E+00
 -1       102 5.00000E-01 7.50000E-01 8.00000E+00
 -1       124 2.50000E-01 0.00000E+00 6.00000E+00
 -1       125 5.00000E-01 0.00000E+00 6.00000E+00
 -1       126 7.50000E-01 0.00000E+00 6.00000E+00
 -1       127 5.00000E-01 0.00000E+00 6.50000E+00
 -1       128 2.50000E-01 0.00000E+00 7.00000E+00
 -1       129 5.00000E-01 0.00000E+00 7.00000E+00
 -1       130 7.50000E-01 0.00000E+00 7.00000E+00
 -1       131 5.00000E-01 0.00000E+00 7.50000E+00
 -1       153 1.00000E+00 2.50000E-01 6.00000E+00
 -1       154 1.00000E+00 5.00000E-01 6.00000E+00
 -1       155 1.00000E+00 7.50000E-01 6.00000E+00
 -1       156 1.00000E+00 5.00000E-01 6.50000E+00
 -1       157 1.00000E+00 2.50000E-01 7.00000E+00
 -1       158 1.00000E+00 5.00000E-01 7.00000E+00
 -1       159 1.00000E+00 7.50000E-01 7.00000E+00
 -1       160 1.00000E+00 5.00000E-01 7.50000E+00
 -1       182 7.50000E-01 1.00000E+00 6.00000E+00
 -1       183 5.00000E-01 1.00000E+00 6.00000E+00
 -1       184 2.50000E-01 1.00000E+00 6.00000E+00
 -1       185 5.00000E-01 1.00000E+00 6.50000E+00
 -1       186 7.50000E-01 1.00000E+00 7.00000E+00
 -1       187 5.00000E-01 1.00000E+00 7.00000E+00
 -1       188 2.50000E-01 1.00000E+00 7.00000E+00
 -1       189 5.00000E-01 1.00000E+00 7.50000E+00
 -1       211 0.00000E+00 7.50000E-01 6.00000E+00
 -1       212 0.00000E+00 5.00000E-01 6.00000E+00
 -1       213 0.00000E+00 2.50000E-01 6.00000E+00
 -1       214 0.00000E+00 5.00000E-01 6.50000E+00
 -1       215 0.00000E+00 7.50000E-01 7.00000E+00
 -1       216 0.00000E+00 5.00000E-01 7.00000E+00
 -1       217 0.00000E+00 2.50000E-01 7.00000E+00
 -1       218 0.00000E+00 5.00000E-01 7.50000E+00
 -1       250 5.00000E-01 2.50000E-01 6.00000E+00
 -1       251 2.50000E-01 5.00000E-01 6.00000E+00
 -1       252 5.00000E-01 5.00000E-01 6.00000E+00
 -1       253 7.50000E-01 5.00000E-01 6.00000E+00
 -1       254 5.00000E-01 7.50000E-01 6.00000E+00
 -1       255 5.00000E-01 5.00000E-01 6.50000E+00
 -1       256 5.00000E-01 2.50000E-01 7.00000E+00
 -1       257 2.50000E-01 5.00000E-01 7.00000E+00
 -1       258 5.00000E-01 5.00000E-01 7.00000E+00
 -1       259 7.50000E-01 5.00000E-01 7.00000E+00
 -1       260 5.00000E-01 7.50000E-01 7.00000E+00
 -1       261 5.00000E-01 5.00000E-01 7.50000E+00
 -3
    3C                             8                                     1
 -1        25    4    0    1
 -2        51       125       252       212        49       129       258       216       124       250
 -2       251       213        50       127       255       214       128       256       257       217
 -1        26    4    0    1
 -2       125        44       154       252       129        46       158       258       126       153
 -2       253       250       127        45       156       255       130       157       259       256
 -1        27    4    0    1
 -2       212       252       183        89       216       258       187        91       251       254
 -2       184       211       214       255       185        90       257       260       188       215
 -1        28    4    0    1
 -2       252       154        74       183       258       158        76       187       253       155
 -2       182       254       255       156        75       185       259       159       186       260
 -1        29    4    0    1
 -2        49       129       258       216         5        22       100        31       128       256
 -2       257       217        48       131       261       218        21        98        99        32
 -1        30    4    0    1
 -2       129        46       158       258        22         6        25       100       130       157
 -2       259       256       131        47       160       261        23        24       101        98
 -1        31    4    0    1
 -2       216       258       187        91        31       100        28         8       257       260
 -2       188       215       218       261       189        92        99       102        29        30
 -1        32    4    0    1
 -2       258       158        76       187       100        25         7        28       259       159
 -2       186       260       261       160        77       189       101        26        27       102
 -3
    1PSTEP                         1           1           1          
  100CL  101 5.00000E-03          81                     1    1           1
 -4  DISP        4    1
 -5  D1          1    2    1    0
 -5  D2          1    2    2    0
 -5  D3          1    2    3    0
 -5  ALL         1    2    0    0    1ALL
 -1         5 0.00000E+00 0.00000E+00 0.00000E+00
 -1         6 0.00000E+00 0.00000E+00 0.00000E+00
 -1         7 0.00000E+00 0.00000E+00 0.00000E+00
 -1         8 0.00000E+00 0.00000E+00 0.00000E+00
 -1        21 0.00000E+00 0.00000E+00 0.00000E+00
 -1        22 0.00000E+00 0.00000E+00 0.00000E+00
 -1        23 0.00000E+00 0.00000E+00 0.00000E+00
 -1        24 0.00000E+00 0.00000E+00 0.00000E+00
 -1        25 0.00000E+00 0.00000E+00 0.00000E+00
 -1        26 0.00000E+00 0.00000E+00 0.00000E+00
 -1        27 0.00000E+00 0.00000E+00 0.00000E+00
 -1        28 0.00000E+00 0.00000E+00 0.00000E+00
 -1        29 0.00000E+00 0.00000E+00 0.00000E+00
 -1        30 0.00000E+00 0.00000E+00 0.00000E+00
 -1        31 0.00000E+00 0.00000E+00 0.00000E+00
 -1        32 0.00000E+00 0.00000E+00 0.00000E+00
 -1        44-5.94030E-05-3.46571E-03 4.48671E-04
 -1        45 5.68831E-05-2.56229E-03 7.85798E-04
 -1        46-4.77095E-05-1.79584E-03 9.49345E-04
 -1        47 1.30961E-04-6.75070E-04 5.43235E-04
 -1        48-1.30954E-04-6.75067E-04 5.43219E-04
 -1        49 4.77676E-05-1.79584E-03 9.49302E-04
 -1        50-5.68077E-05-2.56228E-03 7.85738E-04
 -1        51 5.96712E-05-3.46576E-03 4.48562E-04
 -1        74 3.18246E-04-4.41153E-03-4.94706E-04
 -1        75 1.90882E-04-2.97197E-03-7.84942E-04
 -1        76-1.10199E-04-1.59786E-03-9.49842E-04
 -1        77-2.07789E-04-5.26865E-04-5.58195E-04
 -1        89-3.18134E-04-4.41165E-03-4.94829E-04
 -1        90-1.90806E-04-2.97197E-03-7.85015E-04
 -1        91 1.10226E-04-1.59788E-03-9.49871E-04
 -1        92 2.07797E-04-5.26874E-04-5.58209E-04
 -1        98 0.00000E+00 0.00000E+00 0.00000E+00
 -1        99 0.00000E+00 0.00000E+00 0.00000E+00
 -1       100 0.00000E+00 0.00000E+00 0.00000E+00
 -1       101 0.00000E+00 0.00000E+00 0.00000E+00
 -1       102 0.00000E+00 0.00000E+00 0.00000E+00
 -1       124 1.49069E-04-2.96673E-03 4.29809E-04
 -1       125 7.01132E-08-3.58939E-03 4.48887E-04
 -1       126-1.48867E-04-2.96669E-03 4.29809E-04
 -1       127 6.26716E-08-2.56275E-03 9.03693E-04
 -1       128-9.02843E-06-1.95279E-03 9.48190E-04
 -1       129 7.12096E-09-1.81449E-03 9.41530E-04
 -1       130 9.06341E-06-1.95279E-03 9.48222E-04
 -1       131 3.58349E-09-7.36470E-04 5.56378E-04
 -1       153 6.99695E-05-3.63681E-03 1.91373E-04
 -1       154-1.20116E-04-2.50424E-03-2.07802E-05
 -1       155-6.47177E-05-3.88918E-03-2.37946E-04
 -1       156-1.20190E-04-2.78931E-03-6.44144E-05
 -1       157-2.04651E-05-1.50917E-03 3.92363E-04
 -1       158 8.84202E-05-1.56726E-03-2.94688E-05
 -1       159 4.66853E-05-1.47586E-03-4.11083E-04
 -1       160 3.98335E-05-6.56519E-04 4.87893E-06
 -1       182 1.14395E-04-2.56317E-03-4.71189E-04
 -1       183 7.45677E-08-4.35452E-03-4.76642E-04
 -1       184-1.14264E-04-2.56323E-03-4.71264E-04
 -1       185 2.96431E-08-2.83331E-03-8.73768E-04
 -1       186-4.39699E-05-2.16223E-03-9.82726E-04
 -1       187 1.74282E-08-1.83189E-03-9.63886E-04
 -1       188 4.39994E-05-2.16225E-03-9.82739E-04
 -1       189 1.13942E-09-7.19967E-04-5.64563E-04
 -1       211 6.48778E-05-3.88927E-03-2.38010E-04
 -1       212 1.20344E-04-2.50429E-03-2.08994E-05
 -1       213-6.97000E-05-3.63687E-03 1.91222E-04
 -1       214 1.20262E-04-2.78935E-03-6.44827E-05
 -1       215-4.66434E-05-1.47587E-03-4.11127E-04
 -1       216-8.83687E-05-1.56725E-03-2.95046E-05
 -1       217 2.05170E-05-1.50917E-03 3.92330E-04
 -1       218-3.98245E-05-6.56520E-04 4.86794E-06
 -1       250 7.08244E-08-4.08159E-03 1.74869E-04
 -1       251 3.02777E-05-2.57248E-03-1.02550E-05
 -1       252 6.68541E-08-3.12342E-03-1.46268E-05
 -1       253-3.01008E-05-2.57247E-03-1.02355E-05
 -1       254 6.75109E-08-4.41230E-03-2.54129E-04
 -1       255 5.20970E-08-2.59967E-03-3.18712E-05
 -1       256 8.12284E-09-1.60735E-03 3.95714E-04
 -1       257-4.10716E-05-1.74944E-03-1.20017E-05
 -1       258 9.29210E-09-1.79017E-03-1.46371E-05
 -1       259 4.11060E-05-1.74944E-03-1.19752E-05
 -1       260 1.45710E-08-1.62256E-03-4.18288E-04
 -1       261 4.49631E-09-7.17034E-04-2.01633E-06
 -3
    1PSTEP                         2           2           1          
  100CL  102 1.00000E-02          81                     1    2           1
 -4  DISP        4    1
 -5  D1          1    2    1    0
 -5  D2          1    2    2    0
 -5  D3          1    2    3    0
 -5  ALL         1    2    0    0    1ALL
 -1         5 0.00000E+00 0.00000E+00 0.00000E+00
 -1         6 0.00000E+00 0.00000E+00 0.00000E+00
 -1         7 0.00000E+00 0.00000E+00 0.00000E+00
 -1         8 0.00000E+00 0.00000E+00 0.00000E+00
 -1        21 0.00000E+00 0.00000E+00 0.00000E+00
 -1        22 0.00000E+00 0.00000E+00 0.00000E+00
 -1        23 0.00000E+00 0.00000E+00 0.00000E+00
 -1        24 0.00000E+00 0.00000E+00 0.00000E+00
 -1        25 0.00000E+00 0.00000E+00 0.00000E+00
 -1        26 0.00000E+00 0.00000E+00 0.00000E+00
 -1        27 0.00000E+00 0.00000E+00 0.00000E+00
 -1        28 0.00000E+00 0.00000E+00 0.00000E+00
 -1        29 0.00000E+00 0.00000E+00 0.00000E+00
 -1        30 0.00000E+00 0.00000E+00 0.00000E+00
 -1        31 0.00000E+00 0.00000E+00 0.00000E+00
 -1        32 0.00000E+00 0.00000E+00 0.00000E+00
 -1        44-1.56455E-04 1.60303E-03-2.33736E-04
 -1        45-3.75956E-05 1.24640E-03-3.77059E-04
 -1        46 4.25762E-05 9.15127E-04-4.32092E-04
 -1        47-5.32364E-05 3.70676E-04-2.84095E-04
 -1        48 5.32234E-05 3.70656E-04-2.84051E-04
 -1        49-4.25745E-05 9.15161E-04-4.32038E-04
 -1        50 3.74729E-05 1.24632E-03-3.77017E-04
 -1        51 1.56410E-04 1.60318E-03-2.33839E-04
 -1        74 1.50436E-04 1.60844E-03 2.33980E-04
 -1        75 3.43894E-05 1.24922E-03 3.77300E-04
 -1        76-4.15760E-05 9.14613E-04 4.32217E-04
 -1        77 5.41401E-05 3.69807E-04 2.84115E-04
 -1        89-1.50712E-04 1.60853E-03 2.34167E-04
 -1        90-3.44629E-05 1.24917E-03 3.77364E-04
 -1        91 4.14849E-05 9.14645E-04 4.32251E-04
 -1        92-5.41551E-05 3.69800E-04 2.84115E-04
 -1        98 0.00000E+00 0.00000E+00 0.00000E+00
 -1        99 0.00000E+00 0.00000E+00 0.00000E+00
 -1       100 0.00000E+00 0.00000E+00 0.00000E+00
 -1       101 0.00000E+00 0.00000E+00 0.00000E+00
 -1       102 0.00000E+00 0.00000E+00 0.00000E+00
 -1       124 8.48809E-06 1.48082E-03-2.20376E-04
 -1       125-1.26887E-07 1.76664E-03-2.31354E-04
 -1       126-8.64255E-06 1.48075E-03-2.20388E-04
 -1       127-2.57391E-08 1.30154E-03-4.17498E-04
 -1       128-4.24972E-06 9.58710E-04-4.63395E-04
 -1       129-3.16263E-08 8.89536E-04-4.72382E-04
 -1       130 4.22023E-06 9.58693E-04-4.63408E-04
 -1       131 1.37612E-09 3.75357E-04-2.75928E-04
 -1       153 1.26780E-04 1.91351E-03-1.03943E-04
 -1       154-1.40924E-06 1.69545E-03 9.77732E-08
 -1       155-1.24855E-04 1.92120E-03 1.04085E-04
 -1       156-1.66366E-07 1.40622E-03 3.64874E-07
 -1       157-2.53346E-05 7.93981E-04-1.85945E-04
 -1       158 3.25034E-07 8.10163E-04 1.36133E-07
 -1       159 2.47064E-05 7.92627E-04 1.86001E-04
 -1       160-2.79680E-08 3.08140E-04-3.22887E-08
 -1       182 8.14687E-07 1.47928E-03 2.20607E-04
 -1       183-3.88788E-08 1.76811E-03 2.31391E-04
 -1       184-9.90798E-07 1.47932E-03 2.20637E-04
 -1       185-6.88746E-08 1.30152E-03 4.17001E-04
 -1       186-2.68780E-06 9.59577E-04 4.63560E-04
 -1       187-1.30197E-08 8.89921E-04 4.72309E-04
 -1       188 2.63090E-06 9.59594E-04 4.63589E-04
 -1       189-1.09520E-08 3.75761E-04 2.76027E-04
 -1       211 1.24675E-04 1.92118E-03 1.04138E-04
 -1       212 1.28349E-06 1.69532E-03 1.42737E-07
 -1       213-1.26887E-04 1.91351E-03-1.03872E-04
 -1       214 5.42353E-08 1.40625E-03 4.15512E-07
 -1       215-2.47761E-05 7.92616E-04 1.86054E-04
 -1       216-3.64202E-07 8.10107E-04 1.80953E-07
 -1       217 2.53179E-05 7.93971E-04-1.85919E-04
 -1       218 1.10049E-08 3.08139E-04-6.51502E-09
 -1       250-1.11373E-07 1.91017E-03-1.03044E-04
 -1       251-2.65421E-06 1.20873E-03 1.14492E-07
 -1       252-8.84636E-08 1.54141E-03 6.53153E-08
 -1       253 2.50108E-06 1.20881E-03 6.58238E-08
 -1       254-5.88687E-08 1.90450E-03 1.03356E-04
 -1       255-4.38995E-08 1.37553E-03 9.85905E-08
 -1       256-3.02803E-08 7.82680E-04-2.07296E-04
 -1       257 5.48377E-07 9.14058E-04 4.82632E-08
 -1       258-2.83536E-08 8.11753E-04 6.55190E-08
 -1       259-5.95199E-07 9.14083E-04 3.22900E-08
 -1       260-2.18583E-08 7.84266E-04 2.07424E-04
 -1       261-5.07660E-09 3.48352E-04-1.54351E-08
 -3
    1PSTEP                         3           3           1          
  100CL  103 1.50000E-02          81                     1    3           1
 -4  DISP        4    1
 -5  D1          1    2    1    0
 -5  D2          1    2    2    0
 -5  D3          1    2    3    0
 -5  ALL         1    2    0    0    1ALL
 -1         5 0.00000E+00 0.00000E+00 0.00000E+00
 -1         6 0.00000E+00 0.00000E+00 0.00000E+00
 -1         7 0.00000E+00 0.00000E+00 0.00000E+00
 -1         8 0.00000E+00 0.00000E+00 0.00000E+00
 -1        21 0.00000E+00 0.00000E+00 0.00000E+00
 -1        22 0.00000E+00 0.00000E+00 0.00000E+00
 -1        23 0.00000E+00 0.00000E+00 0.00000E+00
 -1        24 0.00000E+00 0.00000E+00 0.00000E+00
 -1        25 0.00000E+00 0.00000E+00 0.00000E+00
 -1        26 0.00000E+00 0.00000E+00 0.00000E+00
 -1        27 0.00000E+00 0.00000E+00 0.00000E+00
 -1        28 0.00000E+00 0.00000E+00 0.00000E+00
 -1        29 0.00000E+00 0.00000E+00 0.00000E+00
 -1        30 0.00000E+00 0.00000E+00 0.00000E+00
 -1        31 0.00000E+00 0.00000E+00 0.00000E+00
 -1        32 0.00000E+00 0.00000E+00 0.00000E+00
 -1        44 1.23828E-04-1.27067E-03 1.85220E-04
 -1        45 2.91669E-05-9.87988E-04 2.98675E-04
 -1        46-3.36543E-05-7.24522E-04 3.41919E-04
 -1        47 4.22877E-05-2.93595E-04 2.25091E-04
 -1        48-4.22888E-05-2.93579E-04 2.25034E-04
 -1        49 3.35974E-05-7.24482E-04 3.41847E-04
 -1        50-2.89759E-05-9.88040E-04 2.98738E-04
 -1        51-1.23615E-04-1.27096E-03 1.85261E-04
 -1        74-1.22164E-04-1.27227E-03-1.85273E-04
 -1        75-2.81486E-05-9.88848E-04-2.98656E-04
 -1        76 3.33678E-05-7.24272E-04-3.41846E-04
 -1        77-4.25116E-05-2.93364E-04-2.25050E-04
 -1        89 1.22390E-04-1.27197E-03-1.85231E-04
 -1        90 2.83574E-05-9.88789E-04-2.98592E-04
 -1        91-3.34170E-05-7.24298E-04-3.41928E-04
 -1        92 4.25183E-05-2.93374E-04-2.25114E-04
 -1        98 0.00000E+00 0.00000E+00 0.00000E+00
 -1        99 0.00000E+00 0.00000E+00 0.00000E+00
 -1       100 0.00000E+00 0.00000E+00 0.00000E+00
 -1       101 0.00000E+00 0.00000E+00 0.00000E+00
 -1       102 0.00000E+00 0.00000E+00 0.00000E+00
 -1       124-5.63398E-06-1.17249E-03 1.74538E-04
 -1       125 2.07183E-07-1.39945E-03 1.83212E-04
 -1       126 5.89309E-06-1.17247E-03 1.74611E-04
 -1       127 1.00281E-08-1.03099E-03 3.30242E-04
 -1       128 3.13812E-06-7.59295E-04 3.66942E-04
 -1       129 5.12856E-08-7.04373E-04 3.74126E-04
 -1       130-3.10042E-06-7.59289E-04 3.66952E-04
 -1       131-1.06692E-08-2.97392E-04 2.18558E-04
 -1       153-1.01122E-04-1.51800E-03 8.23423E-05
 -1       154 3.35565E-07-1.34612E-03-3.64346E-08
 -1       155 1.00750E-04-1.52010E-03-8.22701E-05
 -1       156-2.35378E-08-1.11372E-03-6.60796E-08
 -1       157 2.02991E-05-6.28884E-04 1.47205E-04
 -1       158-3.30643E-08-6.42092E-04-1.88966E-08
 -1       159-2.01562E-05-6.28474E-04-1.47179E-04
 -1       160 2.01698E-08-2.43964E-04 2.13783E-09
 -1       182-3.54848E-06-1.17194E-03-1.74533E-04
 -1       183 2.28027E-07-1.39993E-03-1.83186E-04
 -1       184 3.83413E-06-1.17192E-03-1.74647E-04
 -1       185 9.41081E-09-1.03096E-03-3.30041E-04
 -1       186 2.72056E-06-7.59428E-04-3.66957E-04
 -1       187 5.88414E-08-7.04271E-04-3.74074E-04
 -1       188-2.67129E-06-7.59416E-04-3.66964E-04
 -1       189-7.04915E-09-2.97424E-04-2.18568E-04
 -1       211-1.00653E-04-1.51987E-03-8.23984E-05
 -1       212-1.79971E-07-1.34614E-03 1.67462E-07
 -1       213 1.01221E-04-1.51824E-03 8.22475E-05
 -1       214 2.81103E-08-1.11371E-03-1.01830E-07
 -1       215 2.01944E-05-6.28501E-04-1.47189E-04
 -1       216 1.20252E-07-6.42088E-04-7.32169E-08
 -1       217-2.02668E-05-6.28846E-04 1.47195E-04
 -1       218-1.44547E-08-2.43960E-04-3.53103E-09
 -1       250 6.56368E-08-1.51069E-03 8.16906E-05
 -1       251 7.25428E-07-9.57309E-04 1.65715E-07
 -1       252-1.23237E-07-1.21983E-03 9.51578E-08
 -1       253-7.41683E-07-9.57308E-04-4.50202E-08
 -1       254 6.98127E-08-1.50908E-03-8.16483E-05
 -1       255 5.30895E-08-1.08984E-03-1.53030E-08
 -1       256 1.18072E-08-6.20051E-04 1.64250E-04
 -1       257-1.46885E-07-7.24257E-04-3.03387E-08
 -1       258-1.90368E-08-6.42517E-04-1.38532E-08
 -1       259 1.60245E-07-7.24258E-04 2.30683E-08
 -1       260 1.67961E-08-6.20410E-04-1.64263E-04
 -1       261 1.65941E-08-2.75979E-04 3.31996E-09
 -3
    1PSTEP                         4           4           1          
  100CL  104 2.00000E-02          81                     1    4           1
 -4  DISP        4    1
 -5  D1          1    2    1    0
 -5  D2          1    2    2    0
 -5  D3          1    2    3    0
 -5  ALL         1    2    0    0    1ALL
 -1         5 0.00000E+00 0.00000E+00 0.00000E+00
 -1         6 0.00000E+00 0.00000E+00 0.00000E+00
 -1         7 0.00000E+00 0.00000E+00 0.00000E+00
 -1         8 0.00000E+00 0.00000E+00 0.00000E+00
 -1        21 0.00000E+00 0.00000E+00 0.00000E+00
 -1        22 0.00000E+00 0.00000E+00 0.00000E+00
 -1        23 0.00000E+00 0.00000E+00 0.00000E+00
 -1        24 0.00000E+00 0.00000E+00 0.00000E+00
 -1        25 0.00000E+00 0.00000E+00 0.00000E+00
 -1        26 0.00000E+00 0.00000E+00 0.00000E+00
 -1        27 0.00000E+00 0.00000E+00 0.00000E+00
 -1        28 0.00000E+00 0.00000E+00 0.00000E+00
 -1        29 0.00000E+00 0.00000E+00 0.00000E+00
 -1        30 0.00000E+00 0.00000E+00 0.00000E+00
 -1        31 0.00000E+00 0.00000E+00 0.00000E+00
 -1        32 0.00000E+00 0.00000E+00 0.00000E+00
 -1        44-9.40587E-05 9.88736E-04-1.43798E-04
 -1        45-2.18055E-05 7.68527E-04-2.31705E-04
 -1        46 2.55751E-05 5.61443E-04-2.65574E-04
 -1        47-3.31776E-05 2.27414E-04-1.74683E-04
 -1        48 3.31781E-05 2.27402E-04-1.74652E-04
 -1        49-2.55427E-05 5.61444E-04-2.65538E-04
 -1        50 2.17394E-05 7.68498E-04-2.31724E-04
 -1        51 9.39930E-05 9.88911E-04-1.43862E-04
 -1        74 9.29875E-05 9.89901E-04 1.43840E-04
 -1        75 2.11238E-05 7.69041E-04 2.31829E-04
 -1        76-2.52492E-05 5.61231E-04 2.65557E-04
 -1        77 3.33329E-05 2.27258E-04 1.74641E-04
 -1        89-9.30569E-05 9.89822E-04 1.43818E-04
 -1        90-2.12066E-05 7.68990E-04 2.31801E-04
 -1        91 2.52440E-05 5.61243E-04 2.65580E-04
 -1        92-3.33411E-05 2.27254E-04 1.74655E-04
 -1        98 0.00000E+00 0.00000E+00 0.00000E+00
 -1        99 0.00000E+00 0.00000E+00 0.00000E+00
 -1       100 0.00000E+00 0.00000E+00 0.00000E+00
 -1       101 0.00000E+00 0.00000E+00 0.00000E+00
 -1       102 0.00000E+00 0.00000E+00 0.00000E+00
 -1       124 4.01892E-06 9.09647E-04-1.35591E-04
 -1       125-9.28698E-08 1.08750E-03-1.42208E-04
 -1       126-4.12721E-06 9.09604E-04-1.35604E-04
 -1       127 3.90583E-09 8.00014E-04-2.56529E-04
 -1       128-2.27821E-06 5.89681E-04-2.84931E-04
 -1       129-1.85851E-08 5.47161E-04-2.90435E-04
 -1       130 2.27113E-06 5.89672E-04-2.84939E-04
 -1       131 5.65123E-09 2.30933E-04-1.69745E-04
 -1       153 7.76394E-05 1.17747E-03-6.39512E-05
 -1       154-2.62128E-07 1.04387E-03 7.19932E-08
 -1       155-7.72342E-05 1.17832E-03 6.39126E-05
 -1       156-5.93241E-09 8.65487E-04 4.08843E-08
 -1       157-1.56029E-05 4.87655E-04-1.14388E-04
 -1       158 1.27831E-08 4.97572E-04 1.16894E-08
 -1       159 1.55059E-05 4.87491E-04 1.14392E-04
 -1       160 3.54393E-09 1.89246E-04-1.10041E-09
 -1       182 3.50090E-06 9.09340E-04 1.35532E-04
 -1       183-5.96992E-08 1.08756E-03 1.42180E-04
 -1       184-3.58136E-06 9.09341E-04 1.35558E-04
 -1       185-1.54682E-08 7.99965E-04 2.56393E-04
 -1       186-2.13983E-06 5.89729E-04 2.84947E-04
 -1       187-2.48593E-08 5.47106E-04 2.90374E-04
 -1       188 2.10804E-06 5.89727E-04 2.84947E-04
 -1       189-2.29272E-09 2.30966E-04 1.69737E-04
 -1       211 7.72418E-05 1.17822E-03 6.38843E-05
 -1       212 2.54285E-07 1.04380E-03-2.34868E-08
 -1       213-7.76617E-05 1.17754E-03-6.38843E-05
 -1       214-1.71587E-08 8.65503E-04 4.63661E-08
 -1       215-1.55288E-05 4.87484E-04 1.14406E-04
 -1       216-3.53436E-08 4.97536E-04 3.46418E-08
 -1       217 1.56041E-05 4.87632E-04-1.14392E-04
 -1       218-9.01468E-09 1.89242E-04 8.14399E-09
 -1       250-4.17766E-08 1.17586E-03-6.33710E-05
 -1       251-1.10027E-07 7.42925E-04 2.59914E-08
 -1       252 2.71658E-08 9.49391E-04 5.80585E-08
 -1       253 1.21294E-07 7.42969E-04 7.72054E-08
 -1       254-1.98592E-08 1.17544E-03 6.34018E-05
 -1       255-1.45919E-08 8.45803E-04-2.55261E-09
 -1       256-9.25337E-09 4.81425E-04-1.27440E-04
 -1       257 3.53037E-08 5.62256E-04-4.50109E-09
 -1       258-2.99425E-09 4.99263E-04-1.11399E-08
 -1       259-4.58105E-08 5.62271E-04-1.71846E-08
 -1       260-1.33887E-08 4.81494E-04 1.27432E-04
 -1       261-5.46050E-09 2.14205E-04 5.37388E-09
 -3
    1PSTEP                         5           5           1          
  100CL  105 2.50000E-02          81                     1    5           1
 -4  DISP        4    1
 -5  D1          1    2    1    0
 -5  D2          1    2    2    0
 -5  D3          1    2    3    0
 -5  ALL         1    2    0    0    1ALL
 -1         5 0.00000E+00 0.00000E+00 0.00000E+00
 -1         6 0.00000E+00 0.00000E+00 0.00000E+00
 -1         7 0.00000E+00 0.00000E+00 0.00000E+00
 -1         8 0.00000E+00 0.00000E+00 0.00000E+00
 -1        21 0.00000E+00 0.00000E+00 0.00000E+00
 -1        22 0.00000E+00 0.00000E+00 0.00000E+00
 -1        23 0.00000E+00 0.00000E+00 0.00000E+00
 -1        24 0.00000E+00 0.00000E+00 0.00000E+00
 -1        25 0.00000E+00 0.00000E+00 0.00000E+00
 -1        26 0.00000E+00 0.00000E+00 0.00000E+00
 -1        27 0.00000E+00 0.00000E+00 0.00000E+00
 -1        28 0.00000E+00 0.00000E+00 0.00000E+00
 -1        29 0.00000E+00 0.00000E+00 0.00000E+00
 -1        30 0.00000E+00 0.00000E+00 0.00000E+00
 -1        31 0.00000E+00 0.00000E+00 0.00000E+00
 -1        32 0.00000E+00 0.00000E+00 0.00000E+00
 -1        44 7.31812E-05-7.44183E-04 1.08537E-04
 -1        45 1.74518E-05-5.78811E-04 1.74990E-04
 -1        46-1.98205E-05-4.24594E-04 2.00401E-04
 -1        47 2.47063E-05-1.72106E-04 1.31928E-04
 -1        48-2.47035E-05-1.72097E-04 1.31887E-04
 -1        49 1.97857E-05-4.24565E-04 2.00343E-04
 -1        50-1.72970E-05-5.78857E-04 1.75042E-04
 -1        51-7.30597E-05-7.44384E-04 1.08601E-04
 -1        74-7.10178E-05-7.46369E-04-1.08666E-04
 -1        75-1.61293E-05-5.79917E-04-1.75045E-04
 -1        76 1.94073E-05-4.24273E-04-2.00348E-04
 -1        77-2.50200E-05-1.71799E-04-1.31886E-04
 -1        89 7.12238E-05-7.46051E-04-1.08591E-04
 -1        90 1.62797E-05-5.79912E-04-1.75003E-04
 -1        91-1.94429E-05-4.24272E-04-2.00414E-04
 -1        92 2.50273E-05-1.71809E-04-1.31938E-04
 -1        98 0.00000E+00 0.00000E+00 0.00000E+00
 -1        99 0.00000E+00 0.00000E+00 0.00000E+00
 -1       100 0.00000E+00 0.00000E+00 0.00000E+00
 -1       101 0.00000E+00 0.00000E+00 0.00000E+00
 -1       102 0.00000E+00 0.00000E+00 0.00000E+00
 -1       124-4.06931E-06-6.87306E-04 1.02314E-04
 -1       125 1.40939E-07-8.20137E-04 1.07329E-04
 -1       126 4.23642E-06-6.87299E-04 1.02369E-04
 -1       127 1.19987E-08-6.04247E-04 1.93674E-04
 -1       128 1.99609E-06-4.44932E-04 2.15054E-04
 -1       129 4.13846E-08-4.12858E-04 2.19308E-04
 -1       130-1.96205E-06-4.44929E-04 2.15060E-04
 -1       131-5.45216E-09-1.74262E-04 1.28088E-04
 -1       153-5.95634E-05-8.88775E-04 4.82709E-05
 -1       154 4.73939E-07-7.89094E-04-3.37520E-08
 -1       155 5.88922E-05-8.91601E-04-4.82293E-05
 -1       156-2.55007E-09-6.52844E-04-9.68413E-08
 -1       157 1.19740E-05-3.68653E-04 8.62920E-05
 -1       158-8.23074E-08-3.76170E-04-2.76001E-08
 -1       159-1.17976E-05-3.68102E-04-8.62693E-05
 -1       160 1.25967E-08-1.42920E-04 4.48396E-09
 -1       182-1.37268E-06-6.86720E-04-1.02383E-04
 -1       183 1.81138E-07-8.20766E-04-1.07409E-04
 -1       184 1.61587E-06-6.86647E-04-1.02418E-04
 -1       185 1.47970E-08-6.04150E-04-1.93407E-04
 -1       186 1.43354E-06-4.45082E-04-2.15074E-04
 -1       187 3.89575E-08-4.12679E-04-2.19228E-04
 -1       188-1.40149E-06-4.45065E-04-2.15088E-04
 -1       189-4.92719E-09-1.74302E-04-1.28097E-04
 -1       211-5.87856E-05-8.91409E-04-4.83639E-05
 -1       212-3.55767E-07-7.89139E-04 1.04087E-07
 -1       213 5.96134E-05-8.88955E-04 4.82381E-05
 -1       214 2.13389E-08-6.52817E-04-1.24889E-07
 -1       215 1.18246E-05-3.68122E-04-8.62683E-05
 -1       216 1.47112E-07-3.76190E-04-7.14353E-08
 -1       217-1.19451E-05-3.68638E-04 8.62748E-05
 -1       218-6.41560E-09-1.42917E-04-6.40953E-09
 -1       250 4.96785E-08-8.86327E-04 4.78401E-05
 -1       251 9.47895E-07-5.61024E-04 1.27859E-07
 -1       252-7.38505E-08-7.15199E-04 5.68247E-08
 -1       253-9.43340E-07-5.60999E-04-6.21499E-09
 -1       254 6.44705E-08-8.84244E-04-4.78734E-05
 -1       255 3.98256E-08-6.38715E-04-1.16442E-08
 -1       256 1.43065E-08-3.63223E-04 9.62664E-05
 -1       257-1.88215E-07-4.24470E-04-2.10686E-08
 -1       258-7.12282E-09-3.76548E-04-4.63793E-09
 -1       259 2.05934E-07-4.24460E-04 1.68465E-08
 -1       260 1.43295E-08-3.63665E-04-9.62765E-05
 -1       261 1.18242E-08-1.61717E-04 2.06019E-09
 -3
    1PSTEP                         6           6           1          
  100CL  106 3.00000E-02          81                     1    6           1
 -4  DISP        4    1
 -5  D1          1    2    1    0
 -5  D2          1    2    2    0
 -5  D3          1    2    3    0
 -5  ALL         1    2    0    0    1ALL
 -1         5 0.00000E+00 0.00000E+00 0.00000E+00
 -1         6 0.00000E+00 0.00000E+00 0.00000E+00
 -1         7 0.00000E+00 0.00000E+00 0.00000E+00
 -1         8 0.00000E+00 0.00000E+00 0.00000E+00
 -1        21 0.00000E+00 0.00000E+00 0.00000E+00
 -1        22 0.00000E+00 0.00000E+00 0.00000E+00
 -1        23 0.00000E+00 0.00000E+00 0.00000E+00
 -1        24 0.00000E+00 0.00000E+00 0.00000E+00
 -1        25 0.00000E+00 0.00000E+00 0.00000E+00
 -1        26 0.00000E+00 0.00000E+00 0.00000E+00
 -1        27 0.00000E+00 0.00000E+00 0.00000E+00
 -1        28 0.00000E+00 0.00000E+00 0.00000E+00
 -1        29 0.00000E+00 0.00000E+00 0.00000E+00
 -1        30 0.00000E+00 0.00000E+00 0.00000E+00
 -1        31 0.00000E+00 0.00000E+00 0.00000E+00
 -1        32 0.00000E+00 0.00000E+00 0.00000E+00
 -1        44-5.19301E-05 5.40624E-04-7.87528E-05
 -1        45-1.20467E-05 4.20256E-04-1.26880E-04
 -1        46 1.41596E-05 3.07673E-04-1.45309E-04
 -1        47-1.80706E-05 1.24631E-04-9.56300E-05