    1C
    1UUSER                                                              
    1UDATE              17.july.2018                                    
    1UTIME              21:35:13                                        
    1UHOST                                                              
    1UPGM               CalculiX                                        
    1UVERSION           Version 2.13                             
    1UCOMPILETIME       jue jun 14 00:40:39 CEST 2018                    
    1UDIR                                                               
    1UDBN                                                               
    1UMAT    1EL                                                        
    2C                           201                                     1
 -1         1 0.00000E+00 0.00000E+00 0.00000E+00
 -1         2 1.00000E+00 0.00000E+00 0.00000E+00
 -1         3 1.00000E+00 1.00000E+00 0.00000E+00
 -1         4 0.00000E+00 1.00000E+00 0.00000E+00
 -1         9 2.50000E-01 0.00000E+00 0.00000E+00
 -1        10 5.00000E-01 0.00000E+00 0.00000E+00
 -1        11 7.50000E-01 0.00000E+00 0.00000E+00
 -1        12 1.00000E+00 2.50000E-01 0.00000E+00
 -1        13 1.00000E+00 5.00000E-01 0.00000E+00
 -1        14 1.00000E+00 7.50000E-01 0.00000E+00
 -1        15 7.50000E-01 1.00000E+00 0.00000E+00
 -1        16 5.00000E-01 1.00000E+00 0.00000E+00
 -1        17 2.50000E-01 1.00000E+00 0.00000E+00
 -1        18 0.00000E+00 7.50000E-01 0.00000E+00
 -1        19 0.00000E+00 5.00000E-01 0.00000E+00
 -1        20 0.00000E+00 2.50000E-01 0.00000E+00
 -1        33 1.00000E+00 0.00000E+00 5.00000E-01
 -1        34 1.00000E+00 0.00000E+00 1.00000E+00
 -1        35 1.00000E+00 0.00000E+00 1.50000E+00
 -1        36 1.00000E+00 0.00000E+00 2.00000E+00
 -1        37 1.00000E+00 0.00000E+00 2.50000E+00
 -1        38 1.00000E+00 0.00000E+00 3.00000E+00
 -1        39 1.00000E+00 0.00000E+00 3.50000E+00
 -1        40 1.00000E+00 0.00000E+00 4.00000E+00
 -1        41 1.00000E+00 0.00000E+00 4.50000E+00
 -1        42 1.00000E+00 0.00000E+00 5.00000E+00
 -1        43 1.00000E+00 0.00000E+00 5.50000E+00
 -1        44 1.00000E+00 0.00000E+00 6.00000E+00
 -1        51 0.00000E+00 0.00000E+00 6.00000E+00
 -1        52 0.00000E+00 0.00000E+00 5.50000E+00
 -1        53 0.00000E+00 0.00000E+00 5.00000E+00
 -1        54 0.00000E+00 0.00000E+00 4.50000E+00
 -1        55 0.00000E+00 0.00000E+00 4.00000E+00
 -1        56 0.00000E+00 0.00000E+00 3.50000E+00
 -1        57 0.00000E+00 0.00000E+00 3.00000E+00
 -1        58 0.00000E+00 0.00000E+00 2.50000E+00
 -1        59 0.00000E+00 0.00000E+00 2.00000E+00
 -1        60 0.00000E+00 0.00000E+00 1.50000E+00
 -1        61 0.00000E+00 0.00000E+00 1.00000E+00
 -1        62 0.00000E+00 0.00000E+00 5.00000E-01
 -1        63 1.00000E+00 1.00000E+00 5.00000E-01
 -1        64 1.00000E+00 1.00000E+00 1.00000E+00
 -1        65 1.00000E+00 1.00000E+00 1.50000E+00
 -1        66 1.00000E+00 1.00000E+00 2.00000E+00
 -1        67 1.00000E+00 1.00000E+00 2.50000E+00
 -1        68 1.00000E+00 1.00000E+00 3.00000E+00
 -1        69 1.00000E+00 1.00000E+00 3.50000E+00
 -1        70 1.00000E+00 1.00000E+00 4.00000E+00
 -1        71 1.00000E+00 1.00000E+00 4.50000E+00
 -1        72 1.00000E+00 1.00000E+00 5.00000E+00
 -1        73 1.00000E+00 1.00000E+00 5.50000E+00
 -1        74 1.00000E+00 1.00000E+00 6.00000E+00
 -1        78 0.00000E+00 1.00000E+00 5.00000E-01
 -1        79 0.00000E+00 1.00000E+00 1.00000E+00
 -1        80 0.00000E+00 1.00000E+00 1.50000E+00
 -1        81 0.00000E+00 1.00000E+00 2.00000E+00
 -1        82 0.00000E+00 1.00000E+00 2.50000E+00
 -1        83 0.00000E+00 1.00000E+00 3.00000E+00
 -1        84 0.00000E+00 1.00000E+00 3.50000E+00
 -1        85 0.00000E+00 1.00000E+00 4.00000E+00
 -1        86 0.00000E+00 1.00000E+00 4.50000E+00
 -1        87 0.00000E+00 1.00000E+00 5.00000E+00
 -1        88 0.00000E+00 1.00000E+00 5.50000E+00
 -1        89 0.00000E+00 1.00000E+00 6.00000E+00
 -1        93 5.00000E-01 2.50000E-01 0.00000E+00
 -1        94 2.50000E-01 5.00000E-01 0.00000E+00
 -1        95 5.00000E-01 5.00000E-01 0.00000E+00
 -1        96 7.50000E-01 5.00000E-01 0.00000E+00
 -1        97 5.00000E-01 7.50000E-01 0.00000E+00
 -1       103 5.00000E-01 0.00000E+00 5.00000E-01
 -1       104 2.50000E-01 0.00000E+00 1.00000E+00
 -1       105 5.00000E-01 0.00000E+00 1.00000E+00
 -1       106 7.50000E-01 0.00000E+00 1.00000E+00
 -1       107 5.00000E-01 0.00000E+00 1.50000E+00
 -1       108 2.50000E-01 0.00000E+00 2.00000E+00
 -1       109 5.00000E-01 0.00000E+00 2.00000E+00
 -1       110 7.50000E-01 0.00000E+00 2.00000E+00
 -1       111 5.00000E-01 0.00000E+00 2.50000E+00
 -1       112 2.50000E-01 0.00000E+00 3.00000E+00
 -1       113 5.00000E-01 0.00000E+00 3.00000E+00
 -1       114 7.50000E-01 0.00000E+00 3.00000E+00
 -1       115 5.00000E-01 0.00000E+00 3.50000E+00
 -1       116 2.50000E-01 0.00000E+00 4.00000E+00
 -1       117 5.00000E-01 0.00000E+00 4.00000E+00
 -1       118 7.50000E-01 0.00000E+00 4.00000E+00
 -1       119 5.00000E-01 0.00000E+00 4.50000E+00
 -1       120 2.50000E-01 0.00000E+00 5.00000E+00
 -1       121 5.00000E-01 0.00000E+00 5.00000E+00
 -1       122 7.50000E-01 0.00000E+00 5.00000E+00
 -1       123 5.00000E-01 0.00000E+00 5.50000E+00
 -1       124 2.50000E-01 0.00000E+00 6.00000E+00
 -1       125 5.00000E-01 0.00000E+00 6.00000E+00
 -1       126 7.50000E-01 0.00000E+00 6.00000E+00
 -1       132 1.00000E+00 5.00000E-01 5.00000E-01
 -1       133 1.00000E+00 2.50000E-01 1.00000E+00
 -1       134 1.00000E+00 5.00000E-01 1.00000E+00
 -1       135 1.00000E+00 7.50000E-01 1.00000E+00
 -1       136 1.00000E+00 5.00000E-01 1.50000E+00
 -1       137 1.00000E+00 2.50000E-01 2.00000E+00
 -1       138 1.00000E+00 5.00000E-01 2.00000E+00
 -1       139 1.00000E+00 7.50000E-01 2.00000E+00
 -1       140 1.00000E+00 5.00000E-01 2.50000E+00
 -1       141 1.00000E+00 2.50000E-01 3.00000E+00
 -1       142 1.00000E+00 5.00000E-01 3.00000E+00
 -1       143 1.00000E+00 7.50000E-01 3.00000E+00
 -1       144 1.00000E+00 5.00000E-01 3.50000E+00
 -1       145 1.00000E+00 2.50000E-01 4.00000E+00
 -1       146 1.00000E+00 5.00000E-01 4.00000E+00
 -1       147 1.00000E+00 7.50000E-01 4.00000E+00
 -1       148 1.00000E+00 5.00000E-01 4.50000E+00
 -1       149 1.00000E+00 2.50000E-01 5.00000E+00
 -1       150 1.00000E+00 5.00000E-01 5.00000E+00
 -1       151 1.00000E+00 7.50000E-01 5.00000E+00
 -1       152 1.00000E+00 5.00000E-01 5.50000E+00
 -1       153 1.00000E+00 2.50000E-01 6.00000E+00
 -1       154 1.00000E+00 5.00000E-01 6.00000E+00
 -1       155 1.00000E+00 7.50000E-01 6.00000E+00
 -1       161 5.00000E-01 1.00000E+00 5.00000E-01
 -1       162 7.50000E-01 1.00000E+00 1.00000E+00
 -1       163 5.00000E-01 1.00000E+00 1.00000E+00
 -1       164 2.50000E-01 1.00000E+00 1.00000E+00
 -1       165 5.00000E-01 1.00000E+00 1.50000E+00
 -1       166 7.50000E-01 1.00000E+00 2.00000E+00
 -1       167 5.00000E-01 1.00000E+00 2.00000E+00
 -1       168 2.50000E-01 1.00000E+00 2.00000E+00
 -1       169 5.00000E-01 1.00000E+00 2.50000E+00
 -1       170 7.50000E-01 1.00000E+00 3.00000E+00
 -1       171 5.00000E-01 1.00000E+00 3.00000E+00
 -1       172 2.50000E-01 1.00000E+00 3.00000E+00
 -1       173 5.00000E-01 1.00000E+00 3.50000E+00
 -1       174 7.50000E-01 1.00000E+00 4.00000E+00
 -1       175 5.00000E-01 1.00000E+00 4.00000E+00
 -1       176 2.50000E-01 1.00000E+00 4.00000E+00
 -1       177 5.00000E-01 1.00000E+00 4.50000E+00
 -1       178 7.50000E-01 1.00000E+00 5.00000E+00
 -1       179 5.00000E-01 1.00000E+00 5.00000E+00
 -1       180 2.50000E-01 1.00000E+00 5.00000E+00
 -1       181 5.00000E-01 1.00000E+00 5.50000E+00
 -1       182 7.50000E-01 1.00000E+00 6.00000E+00
 -1       183 5.00000E-01 1.00000E+00 6.00000E+00
 -1       184 2.50000E-01 1.00000E+00 6.00000E+00
 -1       190 0.00000E+00 5.00000E-01 5.00000E-01
 -1       191 0.00000E+00 7.50000E-01 1.00000E+00
 -1       192 0.00000E+00 5.00000E-01 1.00000E+00
 -1       193 0.00000E+00 2.50000E-01 1.00000E+00
 -1       194 0.00000E+00 5.00000E-01 1.50000E+00
 -1       195 0.00000E+00 7.50000E-01 2.00000E+00
 -1       196 0.00000E+00 5.00000E-01 2.00000E+00
 -1       197 0.00000E+00 2.50000E-01 2.00000E+00
 -1       198 0.00000E+00 5.00000E-01 2.50000E+00
 -1       199 0.00000E+00 7.50000E-01 3.00000E+00
 -1       200 0.00000E+00 5.00000E-01 3.00000E+00
 -1       201 0.00000E+00 2.50000E-01 3.00000E+00
 -1       202 0.00000E+00 5.00000E-01 3.50000E+00
 -1       203 0.00000E+00 7.50000E-01 4.00000E+00
 -1       204 0.00000E+00 5.00000E-01 4.00000E+00
 -1       205 0.00000E+00 2.50000E-01 4.00000E+00
 -1       206 0.00000E+00 5.00000E-01 4.50000E+00
 -1       207 0.00000E+00 7.50000E-01 5.00000E+00
 -1       208 0.00000E+00 5.00000E-01 5.00000E+00
 -1       209 0.00000E+00 2.50000E-01 5.00000E+00
 -1       210 0.00000E+00 5.00000E-01 5.50000E+00
 -1       211 0.00000E+00 7.50000E-01 6.00000E+00
 -1       212 0.00000E+00 5.00000E-01 6.00000E+00
 -1       213 0.00000E+00 2.50000E-01 6.00000E+00
 -1       219 5.00000E-01 5.00000E-01 5.00000E-01
 -1       220 5.00000E-01 2.50000E-01 1.00000E+00
 -1       221 2.50000E-01 5.00000E-01 1.00000E+00
 -1       222 5.00000E-01 5.00000E-01 1.00000E+00
 -1       223 7.50000E-01 5.00000E-01 1.00000E+00
 -1       224 5.00000E-01 7.50000E-01 1.00000E+00
 -1       225 5.00000E-01 5.00000E-01 1.50000E+00
 -1       226 5.00000E-01 2.50000E-01 2.00000E+00
 -1       227 2.50000E-01 5.00000E-01 2.00000E+00
 -1       228 5.00000E-01 5.00000E-01 2.00000E+00
 -1       229 7.50000E-01 5.00000E-01 2.00000E+00
 -1       230 5.00000E-01 7.50000E-01 2.00000E+00
 -1       231 5.00000E-01 5.00000E-01 2.50000E+00
 -1       232 5.00000E-01 2.50000E-01 3.00000E+00
 -1       233 2.50000E-01 5.00000E-01 3.00000E+00
 -1       234 5.00000E-01 5.00000E-01 3.00000E+00
 -1       235 7.50000E-01 5.00000E-01 3.00000E+00
 -1       236 5.00000E-01 7.50000E-01 3.00000E+00
 -1       237 5.00000E-01 5.00000E-01 3.50000E+00
 -1       238 5.00000E-01 2.50000E-01 4.00000E+00
 -1       239 2.50000E-01 5.00000E-01 4.00000E+00
 -1       240 5.00000E-01 5.00000E-01 4.00000E+00
 -1       241 7.50000E-01 5.00000E-01 4.00000E+00
 -1       242 5.00000E-01 7.50000E-01 4.00000E+00
 -1       243 5.00000E-01 5.00000E-01 4.50000E+00
 -1       244 5.00000E-01 2.50000E-01 5.00000E+00
 -1       245 2.50000E-01 5.00000E-01 5.00000E+00
 -1       246 5.00000E-01 5.00000E-01 5.00000E+00
 -1       247 7.50000E-01 5.00000E-01 5.00000E+00
 -1       248 5.00000E-01 7.50000E-01 5.00000E+00
 -1       249 5.00000E-01 5.00000E-01 5.50000E+00
 -1       250 5.00000E-01 2.50000E-01 6.00000E+00
 -1       251 2.50000E-01 5.00000E-01 6.00000E+00
 -1       252 5.00000E-01 5.00000E-01 6.00000E+00
 -1       253 7.50000E-01 5.00000E-01 6.00000E+00
 -1       254 5.00000E-01 7.50000E-01 6.00000E+00
 -3
    3C                            24                                     1
 -1         1    4    0    1
 -2         1        10        95        19        61       105       222       192         9        93
 -2        94        20        62       103       219       190       104       220       221       193
 -1         2    4    0    1
 -2        10         2        13        95       105        34       134       222        11        12
 -2        96        93       103        33       132       219       106       133       223       220
 -1         3    4    0    1
 -2        19        95        16         4       192       222       163        79        94        97
 -2        17        18       190       219       161        78       221       224       164       191
 -1         4    4    0    1
 -2        95        13         3        16       222       134        64       163        96        14
 -2        15        97       219       132        63       161       223       135       162       224
 -1         5    4    0    1
 -2        61       105       222       192        59       109       228       196       104       220
 -2       221       193        60       107       225       194       108       226       227       197
 -1         6    4    0    1
 -2       105        34       134       222       109        36       138       228       106       133
 -2       223       220       107        35       136       225       110       137       229       226
 -1         7    4    0    1
 -2       192       222       163        79       196       228       167        81       221       224
 -2       164       191       194       225       165        80       227       230       168       195
 -1         8    4    0    1
 -2       222       134        64       163       228       138        66       167       223       135
 -2       162       224       225       136        65       165       229       139       166       230
 -1         9    4    0    1
 -2        59       109       228       196        57       113       234       200       108       226
 -2       227       197        58       111       231       198       112       232       233       201
 -1        10    4    0    1
 -2       109        36       138       228       113        38       142       234       110       137
 -2       229       226       111        37       140       231       114       141       235       232
 -1        11    4    0    1
 -2       196       228       167        81       200       234       171        83       227       230
 -2       168       195       198       231       169        82       233       236       172       199
 -1        12    4    0    1
 -2       228       138        66       167       234       142        68       171       229       139
 -2       166       230       231       140        67       169       235       143       170       236
 -1        13    4    0    1
 -2        57       113       234       200        55       117       240       204       112       232
 -2       233       201        56       115       237       202       116       238       239       205
 -1        14    4    0    1
 -2       113        38       142       234       117        40       146       240       114       141
 -2       235       232       115        39       144       237       118       145       241       238
 -1        15    4    0    1
 -2       200       234       171        83       204       240       175        85       233       236
 -2       172       199       202       237       173        84       239       242       176       203
 -1        16    4    0    1
 -2       234       142        68       171       240       146        70       175       235       143
 -2       170       236       237       144        69       173       241       147       174       242
 -1        17    4    0    1
 -2        55       117       240       204        53       121       246       208       116       238
 -2       239       205        54       119       243       206       120       244       245       209
 -1        18    4    0    1
 -2       117        40       146       240       121        42       150       246       118       145
 -2       241       238       119        41       148       243       122       149       247       244
 -1        19    4    0    1
 -2       204       240       175        85       208       246       179        87       239       242
 -2       176       203       206       243       177        86       245       248       180       207
 -1        20    4    0    1
 -2       240       146        70       175       246       150        72       179       241       147
 -2       174       242       243       148        71       177       247       151       178       248
 -1        21    4    0    1
 -2        53       121       246       208        51       125       252       212       120       244
 -2       245       209        52       123       249       210       124       250       251       213
 -1        22    4    0    1
 -2       121        42       150       246       125        44       154       252       122       149
 -2       247       244       123        43       152       249       126       153       253       250
 -1        23    4    0    1
 -2       208       246       179        87       212       252       183        89       245       248
 -2       180       207       210       249       181        88       251       254       184       211
 -1        24    4    0    1
 -2       246       150        72       179       252       154        74       183       247       151
 -2       178       248       249       152        73       181       253       155       182       254
 -3
    1PSTEP                         1           1           1          
  100CL  101 5.00000E-03         201                     1    1           1
 -4  DISP        4    1
 -5  D1          1    2    1    0
 -5  D2          1    2    2    0
 -5  D3          1    2    3    0
 -5  ALL         1    2    0    0    1ALL
 -1         1 0.00000E+00 0.00000E+00 0.00000E+00
 -1         2 0.00000E+00 0.00000E+00 0.00000E+00
 -1         3 0.00000E+00 0.00000E+00 0.00000E+00
 -1         4 0.00000E+00 0.00000E+00 0.00000E+00
 -1         9 0.00000E+00 0.00000E+00 0.00000E+00
 -1        10 0.00000E+00 0.00000E+00 0.00000E+00
 -1        11 0.00000E+00 0.00000E+00 0.00000E+00
 -1        12 0.00000E+00 0.00000E+00 0.00000E+00
 -1        13 0.00000E+00 0.00000E+00 0.00000E+00
 -1        14 0.00000E+00 0.00000E+00 0.00000E+00
 -1        15 0.00000E+00 0.00000E+00 0.00000E+00
 -1        16 0.00000E+00 0.00000E+00 0.00000E+00
 -1        17 0.00000E+00 0.00000E+00 0.00000E+00
 -1        18 0.00000E+00 0.00000E+00 0.00000E+00
 -1        19 0.00000E+00 0.00000E+00 0.00000E+00
 -1        20 0.00000E+00 0.00000E+00 0.00000E+00
 -1        33 6.38388E-05-1.55665E-04-2.04530E-04
 -1        34 3.13593E-05-4.81934E-04-3.74431E-04
 -1        35 2.58221E-05-9.70894E-04-4.84008E-04
 -1        36 8.24881E-06-1.52853E-03-5.41061E-04
 -1        37-5.05277E-06-2.11217E-03-5.47912E-04
 -1        38-2.09780E-05-2.69510E-03-5.19236E-04
 -1        39-4.23817E-05-3.19604E-03-3.84861E-04
 -1        40-4.28465E-05-3.54392E-03-2.09691E-04
 -1        41-4.42015E-05-3.58187E-03-6.40913E-05
 -1        42-6.13698E-05-3.74184E-03-1.48160E-04
 -1        43 6.22211E-05-3.47273E-03 8.59999E-05
 -1        44-5.93893E-05-3.46430E-03 4.48632E-04
 -1        51 5.96048E-05-3.46422E-03 4.48465E-04
 -1        52-6.19135E-05-3.47275E-03 8.58895E-05
 -1        53 6.17780E-05-3.74184E-03-1.48192E-04
 -1        54 4.45917E-05-3.58188E-03-6.40967E-05
 -1        55 4.32422E-05-3.54392E-03-2.09676E-04
 -1        56 4.27360E-05-3.19604E-03-3.84826E-04
 -1        57 2.12859E-05-2.69510E-03-5.19183E-04
 -1        58 5.29488E-06-2.11217E-03-5.47853E-04
 -1        59-8.07183E-06-1.52853E-03-5.41000E-04
 -1        60-2.57096E-05-9.70892E-04-4.83953E-04
 -1        61-3.13029E-05-4.81930E-04-3.74388E-04
 -1        62-6.38206E-05-1.55657E-04-2.04507E-04
 -1        63-6.26414E-05-1.53924E-04 2.01066E-04
 -1        64-3.11362E-05-4.81369E-04 3.67008E-04
 -1        65-2.33697E-05-9.70417E-04 4.73617E-04
 -1        66-7.85158E-06-1.53500E-03 5.27246E-04
 -1        67 5.15380E-06-2.10246E-03 5.30882E-04
 -1        68 1.48217E-05-2.69568E-03 4.93956E-04
 -1        69 5.87322E-05-3.20658E-03 3.58155E-04
 -1        70 6.59934E-05-3.63489E-03 1.84512E-04
 -1        71-4.87106E-06-3.46027E-03 3.33808E-05
 -1        72-1.03114E-04-3.48031E-03 7.88344E-05
 -1        73 2.01150E-04-3.88592E-03-1.68630E-04
 -1        74 3.15639E-04-4.40624E-03-4.94474E-04
 -1        78 6.26596E-05-1.53932E-04 2.01089E-04
 -1        79 3.11926E-05-4.81373E-04 3.67050E-04
 -1        80 2.34822E-05-9.70420E-04 4.73672E-04
 -1        81 8.02870E-06-1.53500E-03 5.27306E-04
 -1        82-4.91167E-06-2.10246E-03 5.30941E-04
 -1        83-1.45135E-05-2.69568E-03 4.94008E-04
 -1        84-5.83779E-05-3.20657E-03 3.58191E-04
 -1        85-6.55969E-05-3.63489E-03 1.84528E-04
 -1        86 5.26103E-06-3.46025E-03 3.33751E-05
 -1        87 1.03523E-04-3.48032E-03 7.88017E-05
 -1        88-2.00842E-04-3.88590E-03-1.68741E-04
 -1        89-3.15420E-04-4.40631E-03-4.94640E-04
 -1        93 0.00000E+00 0.00000E+00 0.00000E+00
 -1        94 0.00000E+00 0.00000E+00 0.00000E+00
 -1        95 0.00000E+00 0.00000E+00 0.00000E+00
 -1        96 0.00000E+00 0.00000E+00 0.00000E+00
 -1        97 0.00000E+00 0.00000E+00 0.00000E+00
 -1       103 7.04050E-09-1.81941E-04-2.00723E-04
 -1       104-1.55988E-05-5.01353E-04-3.80313E-04
 -1       105 2.77431E-08-5.03878E-04-3.82965E-04
 -1       106 1.56539E-05-5.01355E-04-3.80334E-04
 -1       107 5.54616E-08-9.80993E-04-4.86709E-04
 -1       108-3.20931E-06-1.53074E-03-5.44726E-04
 -1       109 8.78215E-08-1.54137E-03-5.43674E-04
 -1       110 3.38554E-06-1.53074E-03-5.44756E-04
 -1       111 1.22066E-07-2.10333E-03-5.51651E-04
 -1       112 7.63750E-06-2.71910E-03-5.21350E-04
 -1       113 1.52227E-07-2.71231E-03-5.22947E-04
 -1       114-7.33063E-06-2.71910E-03-5.21374E-04
 -1       115 1.80095E-07-3.15787E-03-3.93417E-04
 -1       116 3.33132E-05-3.52051E-03-2.04105E-04
 -1       117 1.91893E-07-3.64290E-03-1.83258E-04
 -1       118-3.29234E-05-3.52051E-03-2.04114E-04
 -1       119 2.04632E-07-3.55515E-03-6.57800E-05
 -1       120-7.18399E-06-3.91165E-03-1.12716E-04
 -1       121 1.84305E-07-3.76518E-03-1.17629E-04
 -1       122 7.57593E-06-3.91166E-03-1.12689E-04
 -1       123 1.67548E-07-3.48442E-03-2.55586E-05
 -1       124 1.50789E-04-2.96622E-03 4.29529E-04
 -1       125 5.86166E-08-3.58951E-03 4.48812E-04
 -1       126-1.50625E-04-2.96625E-03 4.29569E-04
 -1       132 7.28353E-07-1.18680E-04-1.61368E-06
 -1       133 1.61651E-05-4.69665E-04-1.78044E-04
 -1       134 9.19063E-07-4.74375E-04-2.90593E-06
 -1       135-1.53652E-05-4.69769E-04 1.71172E-04
 -1       136-1.02613E-07-9.53361E-04-5.61014E-06
 -1       137 4.89610E-06-1.52663E-03-2.68673E-04
 -1       138 6.09219E-07-1.51883E-03-7.38857E-06
 -1       139-3.57461E-06-1.52832E-03 2.55154E-04
 -1       140 1.81025E-06-2.12628E-03-9.22560E-06
 -1       141-1.02963E-05-2.68051E-03-2.44380E-04
 -1       142 5.66306E-06-2.68703E-03-5.17442E-06
 -1       143 1.14559E-05-2.68671E-03 2.24150E-04
 -1       144-8.67088E-06-3.22018E-03-1.27222E-05
 -1       145-2.01355E-05-3.56305E-03-1.32101E-04
 -1       146-1.27537E-05-3.46605E-03-2.47645E-05
 -1       147 1.83857E-05-3.58712E-03 1.00716E-04
 -1       148 2.71594E-05-3.68202E-03-2.37199E-05
 -1       149-3.25052E-05-3.42250E-03-4.67699E-05
 -1       150 8.50947E-05-3.44968E-03-2.10470E-06
 -1       151 2.84511E-05-3.35521E-03-1.54338E-07
 -1       152-1.26218E-04-3.72199E-03 1.14635E-05
 -1       153 6.93339E-05-3.63766E-03 1.91156E-04
 -1       154-1.19784E-04-2.50446E-03-2.06745E-05
 -1       155-6.41040E-05-3.88892E-03-2.38120E-04
 -1       161 7.02510E-09-1.80733E-04 1.96993E-04
 -1       162-1.53434E-05-5.00707E-04 3.73564E-04
 -1       163 2.77238E-08-5.01426E-04 3.75748E-04
 -1       164 1.53984E-05-5.00709E-04 3.73584E-04
 -1       165 5.54812E-08-9.81049E-04 4.76635E-04
 -1       166-3.85585E-06-1.52810E-03 5.30607E-04
 -1       167 8.78094E-08-1.53730E-03 5.32844E-04
 -1       168 4.03212E-06-1.52810E-03 5.30637E-04
 -1       169 1.22122E-07-2.10420E-03 5.30898E-04
 -1       170 7.67519E-06-2.71898E-03 5.01292E-04
 -1       171 1.52180E-07-2.68102E-03 4.96910E-04
 -1       172-7.36822E-06-2.71898E-03 5.01317E-04
 -1       173 1.80220E-07-3.17846E-03 3.69006E-04
 -1       174 3.17018E-05-3.46226E-03 1.71023E-04
 -1       175 1.91777E-07-3.56201E-03 1.72587E-04
 -1       176-3.13118E-05-3.46226E-03 1.71032E-04
 -1       177 2.04847E-07-3.51224E-03 2.06872E-05
 -1       178-4.44360E-05-4.00837E-03 7.14940E-05
 -1       179 1.83625E-07-3.57991E-03 4.82713E-05
 -1       180 4.48279E-05-4.00838E-03 7.14666E-05
 -1       181 1.68339E-07-3.68382E-03-6.04016E-05
 -1       182 1.15154E-04-2.56472E-03-4.71277E-04
 -1       183 5.75712E-08-4.35281E-03-4.76340E-04
 -1       184-1.14991E-04-2.56474E-03-4.71319E-04
 -1       190-7.07175E-07-1.18680E-04-1.59069E-06
 -1       191 1.54240E-05-4.69771E-04 1.71215E-04
 -1       192-8.59658E-07-4.74375E-04-2.86201E-06
 -1       193-1.61063E-05-4.69664E-04-1.78000E-04
 -1       194 2.15859E-07-9.53361E-04-5.55541E-06
 -1       195 3.75301E-06-1.52832E-03 2.55216E-04
 -1       196-4.29512E-07-1.51883E-03-7.32726E-06
 -1       197-4.71775E-06-1.52663E-03-2.68612E-04
 -1       198-1.57059E-06-2.12628E-03-9.16592E-06
 -1       199-1.11464E-05-2.68671E-03 2.24203E-04
 -1       200-5.35176E-06-2.68703E-03-5.11893E-06
 -1       201 1.06056E-05-2.68051E-03-2.44326E-04
 -1       202 9.02021E-06-3.22018E-03-1.26886E-05
 -1       203-1.79853E-05-3.58712E-03 1.00734E-04
 -1       204 1.31606E-05-3.46605E-03-2.47487E-05
 -1       205 2.05358E-05-3.56305E-03-1.32084E-04
 -1       206-2.67877E-05-3.68202E-03-2.37234E-05
 -1       207-2.80305E-05-3.35522E-03-1.77722E-07
 -1       208-8.46618E-05-3.44968E-03-2.10495E-06
 -1       209 3.29245E-05-3.42250E-03-4.67932E-05
 -1       210 1.26517E-04-3.72200E-03 1.13234E-05
 -1       211 6.43846E-05-3.88894E-03-2.38277E-04
 -1       212 1.20133E-04-2.50446E-03-2.08733E-05
 -1       213-6.90503E-05-3.63763E-03 1.91000E-04
 -1       219 8.57439E-09-1.44460E-04-1.43076E-06
 -1       220 2.85002E-08-4.89491E-04-1.83675E-04
 -1       221-3.86419E-07-4.91018E-04-3.63045E-06
 -1       222 2.84138E-08-4.92422E-04-3.80558E-06
 -1       223 4.43685E-07-4.91018E-04-3.65126E-06
 -1       224 2.84902E-08-4.88117E-04 1.76701E-04
 -1       225 5.63997E-08-9.65523E-04-5.13795E-06
 -1       226 8.74040E-08-1.53415E-03-2.72931E-04
 -1       227-2.78071E-07-1.52006E-03-6.86479E-06
 -1       228 8.69605E-08-1.52193E-03-8.46111E-06
 -1       229 4.54652E-07-1.52006E-03-6.89497E-06
 -1       230 8.73968E-08-1.53251E-03 2.57714E-04
 -1       231 1.22550E-07-2.12486E-03-7.48753E-06
 -1       232 1.50296E-07-2.68850E-03-2.49411E-04
 -1       233-2.05906E-06-2.68428E-03-1.27058E-05
 -1       234 1.48819E-07-2.68139E-03-1.39980E-05
 -1       235 2.36471E-06-2.68428E-03-1.27309E-05
 -1       236 1.50278E-07-2.67132E-03 2.27119E-04
 -1       237 1.80452E-07-3.19253E-03-9.38305E-06
 -1       238 1.87573E-07-3.61168E-03-1.24072E-04
 -1       239 5.95518E-06-3.45384E-03-1.44076E-05
 -1       240 1.83974E-07-3.47788E-03-2.00936E-05
 -1       241-5.56932E-06-3.45384E-03-1.44215E-05
 -1       242 1.87477E-07-3.57432E-03 8.83821E-05
 -1       243 2.07722E-07-3.65624E-03-2.12342E-05
 -1       244 1.74695E-07-3.52142E-03-2.06573E-05
 -1       245-3.34064E-05-3.61229E-03-2.62702E-05
 -1       246 1.67104E-07-3.65206E-03-1.97579E-05
 -1       247 3.37987E-05-3.61229E-03-2.62391E-05
 -1       248 1.74567E-07-3.43755E-03-1.00707E-05
 -1       249 1.73679E-07-3.52318E-03-1.36582E-05
 -1       250 4.58508E-08-4.07970E-03 1.74608E-04
 -1       251 3.01497E-05-2.57185E-03-1.05725E-05
 -1       252 3.23893E-08-3.12376E-03-1.65910E-05
 -1       253-2.99593E-05-2.57185E-03-1.05904E-05
 -1       254 4.42708E-08-4.41069E-03-2.54018E-04
 -3
    1PSTEP                         2           2           1          
  100CL  102 1.00000E-02         201                     1    2           1
 -4  DISP        4    1
 -5  D1          1    2    1    0
 -5  D2          1    2    2    0
 -5  D3          1    2    3    0
 -5  ALL         1    2    0    0    1ALL
 -1         1 0.00000E+00 0.00000E+00 0.00000E+00
 -1         2 0.00000E+00 0.00000E+00 0.00000E+00
 -1         3 0.00000E+00 0.00000E+00 0.00000E+00
 -1         4 0.00000E+00 0.00000E+00 0.00000E+00
 -1         9 0.00000E+00 0.00000E+00 0.00000E+00
 -1        10 0.00000E+00 0.00000E+00 0.00000E+00
 -1        11 0.00000E+00 0.00000E+00 0.00000E+00
 -1        12 0.00000E+00 0.00000E+00 0.00000E+00
 -1        13 0.00000E+00 0.00000E+00 0.00000E+00
 -1        14 0.00000E+00 0.00000E+00 0.00000E+00
 -1        15 0.00000E+00 0.00000E+00 0.00000E+00
 -1        16 0.00000E+00 0.00000E+00 0.00000E+00
 -1        17 0.00000E+00 0.00000E+00 0.00000E+00
 -1        18 0.00000E+00 0.00000E+00 0.00000E+00
 -1        19 0.00000E+00 0.00000E+00 0.00000E+00
 -1        20 0.00000E+00 0.00000E+00 0.00000E+00
 -1        33-3.19945E-05 7.91820E-05 1.03016E-04
 -1        34-1.54796E-05 2.44844E-04 1.87758E-04
 -1        35-1.27394E-05 4.92617E-04 2.42752E-04
 -1        36-4.50487E-06 7.74420E-04 2.70093E-04
 -1        37 4.31611E-06 1.07195E-03 2.71896E-04
 -1        38 1.35225E-05 1.36780E-03 2.50369E-04
 -1        39 2.07989E-05 1.60909E-03 1.85253E-04
 -1        40 1.40227E-05 1.78370E-03 9.24791E-05
 -1        41 3.49774E-05 1.81752E-03 2.08448E-05
 -1        42 4.48117E-05 1.87229E-03 1.12624E-05
 -1        43-3.84189E-05 1.69816E-03-7.84872E-05
 -1        44-1.51881E-04 1.60823E-03-2.33976E-04
 -1        51 1.52094E-04 1.60793E-03-2.33986E-04
 -1        52 3.85948E-05 1.69802E-03-7.84537E-05
 -1        53-4.47095E-05 1.87213E-03 1.12220E-05
 -1        54-3.48835E-05 1.81745E-03 2.08483E-05
 -1        55-1.39517E-05 1.78359E-03 9.24827E-05
 -1        56-2.07256E-05 1.60902E-03 1.85256E-04
 -1        57-1.34696E-05 1.36773E-03 2.50365E-04
 -1        58-4.26777E-06 1.07190E-03 2.71895E-04
 -1        59 4.54051E-06 7.74373E-04 2.70091E-04
 -1        60 1.27689E-05 4.92584E-04 2.42750E-04
 -1        61 1.54979E-05 2.44822E-04 1.87756E-04
 -1        62 3.20038E-05 7.91721E-05 1.03015E-04
 -1        63 3.19884E-05 7.91707E-05-1.02995E-04
 -1        64 1.54779E-05 2.44837E-04-1.87713E-04
 -1        65 1.27195E-05 4.92617E-04-2.42690E-04
 -1        66 4.48363E-06 7.74458E-04-2.70014E-04
 -1        67-4.31193E-06 1.07189E-03-2.71795E-04
 -1        68-1.34615E-05 1.36776E-03-2.50218E-04
 -1        69-2.09209E-05 1.60917E-03-1.85104E-04
 -1        70-1.42738E-05 1.78423E-03-9.23615E-05
 -1        71-3.46530E-05 1.81690E-03-2.06636E-05
 -1        72-4.33774E-05 1.87040E-03-1.07664E-05
 -1        73 3.68473E-05 1.70037E-03 7.88954E-05
 -1        74 1.50100E-04 1.61289E-03 2.34196E-04
 -1        78-3.19990E-05 7.91612E-05-1.02996E-04