
 displacements (vx,vy,vz) for set NALL and time  0.5000000E-02

         5  0.000000E+00  0.000000E+00  0.000000E+00
         6  0.000000E+00  0.000000E+00  0.000000E+00
         7  0.000000E+00  0.000000E+00  0.000000E+00
         8  0.000000E+00  0.000000E+00  0.000000E+00
        21  0.000000E+00  0.000000E+00  0.000000E+00
        22  0.000000E+00  0.000000E+00  0.000000E+00
        23  0.000000E+00  0.000000E+00  0.000000E+00
        24  0.000000E+00  0.000000E+00  0.000000E+00
        25  0.000000E+00  0.000000E+00  0.000000E+00
        26  0.000000E+00  0.000000E+00  0.000000E+00
        27  0.000000E+00  0.000000E+00  0.000000E+00
        28  0.000000E+00  0.000000E+00  0.000000E+00
        29  0.000000E+00  0.000000E+00  0.000000E+00
        30  0.000000E+00  0.000000E+00  0.000000E+00
        31  0.000000E+00  0.000000E+00  0.000000E+00
        32  0.000000E+00  0.000000E+00  0.000000E+00
        44 -5.940302E-05 -3.465714E-03  4.486705E-04
        45  5.688306E-05 -2.562285E-03  7.857979E-04
        46 -4.770950E-05 -1.795841E-03  9.493449E-04
        47  1.309611E-04 -6.750696E-04  5.432345E-04
        48 -1.309541E-04 -6.750668E-04  5.432187E-04
        49  4.776762E-05 -1.795843E-03  9.493025E-04
        50 -5.680773E-05 -2.562282E-03  7.857376E-04
        51  5.967119E-05 -3.465765E-03  4.485621E-04
        74  3.182464E-04 -4.411534E-03 -4.947056E-04
        75  1.908816E-04 -2.971972E-03 -7.849424E-04
        76 -1.101991E-04 -1.597862E-03 -9.498422E-04
        77 -2.077892E-04 -5.268653E-04 -5.581948E-04
        89 -3.181340E-04 -4.411652E-03 -4.948292E-04
        90 -1.908064E-04 -2.971975E-03 -7.850150E-04
        91  1.102260E-04 -1.597882E-03 -9.498711E-04
        92  2.077974E-04 -5.268737E-04 -5.582094E-04
        98  0.000000E+00  0.000000E+00  0.000000E+00
        99  0.000000E+00  0.000000E+00  0.000000E+00
       100  0.000000E+00  0.000000E+00  0.000000E+00
       101  0.000000E+00  0.000000E+00  0.000000E+00
       102  0.000000E+00  0.000000E+00  0.000000E+00
       124  1.490689E-04 -2.966731E-03  4.298090E-04
       125  7.011323E-08 -3.589391E-03  4.488865E-04
       126 -1.488668E-04 -2.966694E-03  4.298092E-04
       127  6.267162E-08 -2.562751E-03  9.036933E-04
       128 -9.028432E-06 -1.952790E-03  9.481905E-04
       129  7.120958E-09 -1.814491E-03  9.415298E-04
       130  9.063412E-06 -1.952790E-03  9.482217E-04
       131  3.583494E-09 -7.364702E-04  5.563783E-04
       153  6.996954E-05 -3.636815E-03  1.913726E-04
       154 -1.201162E-04 -2.504238E-03 -2.078022E-05
       155 -6.471769E-05 -3.889184E-03 -2.379462E-04
       156 -1.201896E-04 -2.789314E-03 -6.441440E-05
       157 -2.046513E-05 -1.509167E-03  3.923627E-04
       158  8.842024E-05 -1.567260E-03 -2.946879E-05
       159  4.668530E-05 -1.475860E-03 -4.110831E-04
       160  3.983349E-05 -6.565186E-04  4.878932E-06
       182  1.143953E-04 -2.563169E-03 -4.711887E-04
       183  7.456770E-08 -4.354517E-03 -4.766419E-04
       184 -1.142638E-04 -2.563227E-03 -4.712642E-04
       185  2.964307E-08 -2.833310E-03 -8.737683E-04
       186 -4.396991E-05 -2.162234E-03 -9.827256E-04
       187  1.742819E-08 -1.831895E-03 -9.638862E-04
       188  4.399935E-05 -2.162245E-03 -9.827387E-04
       189  1.139424E-09 -7.199668E-04 -5.645630E-04
       211  6.487783E-05 -3.889265E-03 -2.380102E-04
       212  1.203444E-04 -2.504294E-03 -2.089936E-05
       213 -6.970003E-05 -3.636866E-03  1.912222E-04
       214  1.202619E-04 -2.789346E-03 -6.448266E-05
       215 -4.664336E-05 -1.475868E-03 -4.111273E-04
       216 -8.836872E-05 -1.567253E-03 -2.950455E-05
       217  2.051702E-05 -1.509165E-03  3.923303E-04
       218 -3.982450E-05 -6.565198E-04  4.867938E-06
       250  7.082438E-08 -4.081590E-03  1.748689E-04
       251  3.027769E-05 -2.572477E-03 -1.025497E-05
       252  6.685407E-08 -3.123424E-03 -1.462676E-05
       253 -3.010083E-05 -2.572465E-03 -1.023549E-05
       254  6.751088E-08 -4.412296E-03 -2.541287E-04
       255  5.209702E-08 -2.599668E-03 -3.187121E-05
       256  8.122841E-09 -1.607353E-03  3.957141E-04
       257 -4.107165E-05 -1.749442E-03 -1.200174E-05
       258  9.292096E-09 -1.790169E-03 -1.463714E-05
       259  4.110595E-05 -1.749442E-03 -1.197519E-05
       260  1.457101E-08 -1.622559E-03 -4.182880E-04
       261  4.496312E-09 -7.170342E-04 -2.016335E-06

 forces (fx,fy,fz) for set NALL and time  0.5000000E-02

         5  2.296059E+00 -4.177323E+00 -1.105194E+00
         6 -2.296162E+00 -4.177262E+00 -1.105265E+00
         7  3.462955E+00  1.082899E+00  1.267731E+00
         8 -3.463016E+00  1.082928E+00  1.267893E+00
        21 -2.779603E+00  5.573721E+00 -1.789626E+01
        22  1.648376E-04 -9.879389E+00 -6.661564E-01
        23  2.779630E+00  5.573851E+00 -1.789620E+01
        24 -4.630692E+00  1.711100E+01 -1.021871E+01
        25  8.591445E-01 -1.151220E+01 -4.636076E-01
        26  2.144449E+00  1.341842E+01  1.050589E+01
        27 -1.820652E+00 -4.417927E-01  1.760007E+01
        28 -1.151805E-04 -1.600739E+00  1.776864E+00
        29  1.820812E+00 -4.414992E-01  1.760041E+01
        30 -2.144620E+00  1.341857E+01  1.050601E+01
        31 -8.594383E-01 -1.151235E+01 -4.632681E-01
        32  4.630090E+00  1.711106E+01 -1.021799E+01
        44  1.927992E+00  5.186932E+01  1.437601E+00
        45  7.424651E-06 -6.080698E-01  1.525323E-01
        46  1.120272E-05  1.541487E+00 -4.633941E-01
        47 -2.209325E-05 -1.167013E+00  5.402958E-01
        48 -2.209285E-05 -1.166992E+00  5.402896E-01
        49  1.120168E-05  1.541470E+00 -4.634011E-01
        50  7.425895E-06 -6.080680E-01  1.525475E-01
        51 -1.928028E+00  5.186925E+01  1.437430E+00
        74 -7.403290E+00  1.758056E+01 -9.797930E-01
        75 -5.271097E-06 -6.080698E-01 -1.525401E-01
        76 -6.544799E-06  1.541487E+00  4.633854E-01
        77  1.638405E-05 -1.167013E+00 -5.402828E-01
        89  7.403506E+00  1.758021E+01 -9.806884E-01
        90 -5.271509E-06 -6.080680E-01 -1.525326E-01
        91 -6.544423E-06  1.541470E+00  4.633688E-01
        92  1.638331E-05 -1.166992E+00 -5.402617E-01
        98  3.173254E-04  3.796451E+01 -1.717118E+01
        99 -2.254200E-01 -7.603281E+00  6.571021E-01
       100  1.622647E-04 -2.289112E+01 -3.914295E-01
       101  2.255903E-01 -7.603211E+00  6.570242E-01
       102  2.508170E-04  3.525739E+01  1.650156E+01
       124  1.700999E+01  1.974864E+01 -6.187928E-01
       125 -5.368479E-04  1.114120E+02  2.977100E+00
       126 -1.701027E+01  1.974821E+01 -6.199757E-01
       127  1.485077E-05 -1.216138E+00  3.050799E-01
       128 -2.518627E-05 -2.615755E+00  9.358339E-01
       129  2.240432E-05  3.082957E+00 -9.267952E-01
       130 -2.518723E-05 -2.615788E+00  9.358327E-01
       131 -4.418606E-05 -2.334006E+00  1.080585E+00
       153  1.153233E+01 -1.326694E+02 -2.304292E+00
       154 -2.904406E+00  9.853277E+01  4.462787E-01
       155  4.109825E+00 -1.082342E+02  1.396766E+00
       156  2.153030E-06 -1.216140E+00 -7.739598E-06
       157 -2.033077E-05 -2.615793E+00  7.018761E-01
       158  4.658116E-06  3.082974E+00 -8.656798E-06
       159  8.810266E-06 -2.615793E+00 -7.018619E-01
       160 -5.709527E-06 -2.334026E+00  1.301676E-05
       182  7.992647E+00  6.530933E+01  4.065158E-01
       183  3.709070E-04  5.160440E+01 -1.369294E+00
       184 -7.992397E+00  6.530932E+01  4.063936E-01
       185 -1.054219E-05 -6.742454E+00 -3.050727E-01
       186  1.366725E-05 -8.142104E+00 -9.358135E-01
       187 -1.308932E-05 -2.443358E+00  9.267542E-01
       188  1.366671E-05 -8.142071E+00 -9.357854E-01
       189  3.276734E-05 -7.860321E+00 -1.080545E+00
       211 -4.110068E+00 -1.082344E+02  1.398310E+00
       212  2.904994E+00  9.853206E+01  4.449853E-01
       213 -1.153092E+01 -1.326695E+02 -2.306043E+00
       214  2.155131E-06 -1.216136E+00  1.492513E-05
       215  8.810128E-06 -2.615750E+00 -7.018288E-01
       216  4.657071E-06  3.082941E+00 -3.231760E-05
       217 -2.032939E-05 -2.615749E+00  7.018823E-01
       218 -5.709346E-06 -2.333985E+00  2.789250E-05
       250 -2.304760E-04 -2.936490E+02 -5.879681E+00
       251  5.194379E+00  8.823922E+01  5.247956E-01
       252 -1.552336E-04  2.055593E+02  1.389668E+00
       253 -5.194777E+00  8.823883E+01  5.228843E-01
       254 -7.804602E-04 -2.682097E+02  1.524233E+00
       255  4.308733E-06 -2.432276E+00  7.184241E-06
       256 -4.065994E-05 -5.231543E+00  1.403758E+00
       257 -1.151901E-05 -5.231510E+00  4.852175E-05
       258  9.315006E-06  6.165915E+00 -4.097424E-05
       259 -1.152043E-05 -5.231576E+00  1.917867E-05
       260  1.762073E-05 -5.231543E+00 -1.403691E+00
       261 -1.141886E-05 -4.668011E+00  4.090913E-05

 displacements (vx,vy,vz) for set NALL and time  0.1000000E-01

         5  0.000000E+00  0.000000E+00  0.000000E+00
         6  0.000000E+00  0.000000E+00  0.000000E+00
         7  0.000000E+00  0.000000E+00  0.000000E+00
         8  0.000000E+00  0.000000E+00  0.000000E+00
        21  0.000000E+00  0.000000E+00  0.000000E+00
        22  0.000000E+00  0.000000E+00  0.000000E+00
        23  0.000000E+00  0.000000E+00  0.000000E+00
        24  0.000000E+00  0.000000E+00  0.000000E+00
        25  0.000000E+00  0.000000E+00  0.000000E+00
        26  0.000000E+00  0.000000E+00  0.000000E+00
        27  0.000000E+00  0.000000E+00  0.000000E+00
        28  0.000000E+00  0.000000E+00  0.000000E+00
        29  0.000000E+00  0.000000E+00  0.000000E+00
        30  0.000000E+00  0.000000E+00  0.000000E+00
        31  0.000000E+00  0.000000E+00  0.000000E+00
        32  0.000000E+00  0.000000E+00  0.000000E+00
        44 -1.564549E-04  1.603030E-03 -2.337356E-04
        45 -3.759561E-05  1.246396E-03 -3.770595E-04
        46  4.257615E-05  9.151271E-04 -4.320918E-04
        47 -5.323640E-05  3.706757E-04 -2.840950E-04
        48  5.322343E-05  3.706559E-04 -2.840515E-04
        49 -4.257452E-05  9.151605E-04 -4.320379E-04
        50  3.747294E-05  1.246317E-03 -3.770173E-04
        51  1.564101E-04  1.603184E-03 -2.338393E-04
        74  1.504364E-04  1.608438E-03  2.339804E-04
        75  3.438938E-05  1.249222E-03  3.773002E-04
        76 -4.157602E-05  9.146135E-04  4.322171E-04
        77  5.414010E-05  3.698071E-04  2.841145E-04
        89 -1.507117E-04  1.608529E-03  2.341674E-04
        90 -3.446287E-05  1.249171E-03  3.773636E-04
        91  4.148494E-05  9.146453E-04  4.322506E-04
        92 -5.415513E-05  3.697997E-04  2.841148E-04
        98  0.000000E+00  0.000000E+00  0.000000E+00
        99  0.000000E+00  0.000000E+00  0.000000E+00
       100  0.000000E+00  0.000000E+00  0.000000E+00
       101  0.000000E+00  0.000000E+00  0.000000E+00
       102  0.000000E+00  0.000000E+00  0.000000E+00
       124  8.488092E-06  1.480818E-03 -2.203761E-04
       125 -1.268869E-07  1.766643E-03 -2.313541E-04
       126 -8.642552E-06  1.480750E-03 -2.203882E-04
       127 -2.573913E-08  1.301537E-03 -4.174978E-04
       128 -4.249717E-06  9.587104E-04 -4.633946E-04
       129 -3.162627E-08  8.895355E-04 -4.723824E-04
       130  4.220231E-06  9.586929E-04 -4.634078E-04
       131  1.376117E-09  3.753567E-04 -2.759276E-04
       153  1.267803E-04  1.913511E-03 -1.039426E-04
       154 -1.409242E-06  1.695450E-03  9.777321E-08
       155 -1.248548E-04  1.921200E-03  1.040850E-04
       156 -1.663656E-07  1.406218E-03  3.648738E-07
       157 -2.533457E-05  7.939812E-04 -1.859450E-04
       158  3.250345E-07  8.101625E-04  1.361328E-07
       159  2.470643E-05  7.926274E-04  1.860011E-04
       160 -2.796798E-08  3.081399E-04 -3.228870E-08
       182  8.146869E-07  1.479283E-03  2.206068E-04
       183 -3.887876E-08  1.768110E-03  2.313906E-04
       184 -9.907976E-07  1.479318E-03  2.206367E-04
       185 -6.887456E-08  1.301523E-03  4.170007E-04
       186 -2.687800E-06  9.595771E-04  4.635600E-04
       187 -1.301974E-08  8.899207E-04  4.723093E-04
       188  2.630899E-06  9.595942E-04  4.635891E-04
       189 -1.095197E-08  3.757613E-04  2.760271E-04
       211  1.246754E-04  1.921176E-03  1.041383E-04
       212  1.283487E-06  1.695316E-03  1.427370E-07
       213 -1.268866E-04  1.913514E-03 -1.038721E-04
       214  5.423534E-08  1.406248E-03  4.155124E-07
       215 -2.477608E-05  7.926159E-04  1.860541E-04
       216 -3.642016E-07  8.101073E-04  1.809530E-07
       217  2.531794E-05  7.939709E-04 -1.859187E-04
       218  1.100493E-08  3.081387E-04 -6.515022E-09
       250 -1.113732E-07  1.910167E-03 -1.030435E-04
       251 -2.654214E-06  1.208729E-03  1.144923E-07
       252 -8.846357E-08  1.541412E-03  6.531531E-08
       253  2.501076E-06  1.208809E-03  6.582381E-08
       254 -5.886871E-08  1.904501E-03  1.033559E-04
       255 -4.389950E-08  1.375527E-03  9.859054E-08
       256 -3.028031E-08  7.826801E-04 -2.072962E-04
       257  5.483770E-07  9.140576E-04  4.826320E-08
       258 -2.835358E-08  8.117529E-04  6.551899E-08
       259 -5.951987E-07  9.140833E-04  3.229005E-08
       260 -2.185831E-08  7.842663E-04  2.074245E-04
       261 -5.076597E-09  3.483518E-04 -1.543506E-08

 forces (fx,fy,fz) for set NALL and time  0.1000000E-01

         5 -1.675187E+00  3.888881E-01  9.230622E-01
         6  1.674839E+00  3.892805E-01  9.224213E-01
         7 -1.674628E+00  3.954423E-01 -9.220286E-01
         8  1.675145E+00  3.949334E-01 -9.224913E-01
        21  1.039616E+00 -1.658947E+00  8.959357E+00
        22  2.153540E-04  7.543676E-01  1.409073E+00
        23 -1.039869E+00 -1.658359E+00  8.960021E+00
        24  1.159200E+00 -5.893471E+00  4.715557E+00
        25  2.847613E-02  2.462583E+00  3.042162E-03
        26 -1.177778E+00 -5.915546E+00 -4.718130E+00
        27  1.054580E+00 -1.650852E+00 -8.957456E+00
        28 -1.031932E-04  7.044201E-01 -1.415844E+00
        29 -1.054670E+00 -1.651413E+00 -8.957665E+00
        30  1.178233E+00 -5.915512E+00 -4.718496E+00
        31 -2.839087E-02  2.463082E+00  3.393453E-03
        32 -1.159767E+00 -5.893504E+00  4.714760E+00
        44 -6.211432E+00 -1.515026E+01 -7.502387E-01
        45 -6.359840E-06  5.208630E-01 -1.306568E-01
        46 -9.596072E-06 -1.320414E+00  3.969361E-01
        47  1.892473E-05  9.996453E-01 -4.628089E-01
        48  1.892439E-05  9.996274E-01 -4.628037E-01
        49 -9.595186E-06 -1.320399E+00  3.969421E-01
        50 -6.360906E-06  5.208615E-01 -1.306698E-01
        51  6.213036E+00 -1.514864E+01 -7.522429E-01
        74  6.189281E+00 -1.518907E+01  7.476719E-01
        75  4.515140E-06  5.208631E-01  1.306634E-01
        76  5.606173E-06 -1.320414E+00 -3.969287E-01
        77 -1.403432E-05  9.996453E-01  4.627978E-01
        89 -6.190394E+00 -1.518768E+01  7.488039E-01
        90  4.515491E-06  5.208615E-01  1.306570E-01
        91  5.605851E-06 -1.320399E+00 -3.969144E-01
        92 -1.403368E-05  9.996274E-01  4.627798E-01
        98  8.315096E-04 -1.290524E+01  8.228474E+00
        99  3.723580E-02  3.907051E+00 -5.558731E-03
       100  3.102514E-04  5.314992E+00 -4.506635E-04
       101 -3.758412E-02  3.905359E+00 -4.669771E-03
       102 -6.102784E-04 -1.283092E+01 -8.219541E+00
       124 -6.472666E+00 -1.687458E+01  4.665684E-01
       125  1.909810E-04 -3.127007E+01 -1.398379E+00
       126  6.471715E+00 -1.687501E+01  4.649197E-01
       127 -1.272094E-05  1.041725E+00 -2.613266E-01
       128  2.157417E-05  2.240615E+00 -8.016207E-01
       129 -1.919119E-05 -2.640813E+00  7.938783E-01
       130  2.157499E-05  2.240643E+00 -8.016196E-01
       131  3.784909E-05  1.999273E+00 -9.256126E-01
       153  4.704361E+00  5.175714E+01  1.167234E+00
       154 -2.733422E-01 -3.317005E+01 -2.373209E-03
       155 -4.531480E+00  5.192790E+01 -1.164438E+00
       156 -1.844253E-06  1.041726E+00  6.629618E-06
       157  1.741502E-05  2.240648E+00 -6.012161E-01
       158 -3.990069E-06 -2.640827E+00  7.415279E-06
       159 -7.546736E-06  2.240648E+00  6.012039E-01
       160  4.890692E-06  1.999291E+00 -1.114995E-05
       182 -6.591814E+00 -1.697305E+01 -4.611035E-01
       183  2.647553E-04 -3.080470E+01  1.388392E+00
       184  6.591658E+00 -1.697328E+01 -4.618336E-01
       185  9.030279E-06  1.069425E+00  2.613205E-01
       186 -1.170715E-05  2.268344E+00  8.016032E-01
       187  1.121211E-05 -2.613112E+00 -7.938432E-01
       188 -1.170669E-05  2.268316E+00  8.015791E-01
       189 -2.806799E-05  2.026974E+00  9.255775E-01
       211  4.532071E+00  5.192730E+01 -1.165022E+00
       212  2.740193E-01 -3.317034E+01 -3.541124E-03
       213 -4.704600E+00  5.175641E+01  1.169410E+00
       214 -1.846051E-06  1.041723E+00 -1.278464E-05
       215 -7.546617E-06  2.240610E+00  6.011756E-01
       216 -3.989174E-06 -2.640799E+00  2.768275E-05
       217  1.741384E-05  2.240610E+00 -6.012214E-01
       218  4.890536E-06  1.999255E+00 -2.389228E-05
       250 -2.440729E-03  1.050045E+02  2.314967E+00
       251 -3.666324E-01 -4.723126E+01  2.471903E-03
       252  2.554796E-04 -6.971697E+01 -7.649097E-03
       253  3.659027E-01 -4.722665E+01  4.545644E-04
       254  1.879344E-03  1.042917E+02 -2.300646E+00
       255 -3.690793E-06  2.083449E+00 -6.153910E-06
       256  3.482867E-05  4.481258E+00 -1.202437E+00
       257  9.867003E-06  4.481230E+00 -4.156297E-05
       258 -7.979088E-06 -5.281626E+00  3.509790E-05
       259  9.868217E-06  4.481286E+00 -1.642815E-05
       260 -1.509364E-05  4.481258E+00  1.202379E+00
       261  9.781219E-06  3.998545E+00 -3.504212E-05

 displacements (vx,vy,vz) for set NALL and time  0.1500000E-01

         5  0.000000E+00  0.000000E+00  0.000000E+00
         6  0.000000E+00  0.000000E+00  0.000000E+00
         7  0.000000E+00  0.000000E+00  0.000000E+00
         8  0.000000E+00  0.000000E+00  0.000000E+00
        21  0.000000E+00  0.000000E+00  0.000000E+00
        22  0.000000E+00  0.000000E+00  0.000000E+00
        23  0.000000E+00  0.000000E+00  0.000000E+00
        24  0.000000E+00  0.000000E+00  0.000000E+00
        25  0.000000E+00  0.000000E+00  0.000000E+00
        26  0.000000E+00  0.000000E+00  0.000000E+00
        27  0.000000E+00  0.000000E+00  0.000000E+00
        28  0.000000E+00  0.000000E+00  0.000000E+00
        29  0.000000E+00  0.000000E+00  0.000000E+00
        30  0.000000E+00  0.000000E+00  0.000000E+00
        31  0.000000E+00  0.000000E+00  0.000000E+00
        32  0.000000E+00  0.000000E+00  0.000000E+00
        44  1.238278E-04 -1.270667E-03  1.852203E-04
        45  2.916690E-05 -9.879876E-04  2.986749E-04
        46 -3.365433E-05 -7.245219E-04  3.419189E-04
        47  4.228765E-05 -2.935955E-04  2.250915E-04
        48 -4.228881E-05 -2.935792E-04  2.250338E-04
        49  3.359744E-05 -7.244816E-04  3.418469E-04
        50 -2.897589E-05 -9.880403E-04  2.987379E-04
        51 -1.236155E-04 -1.270957E-03  1.852607E-04
        74 -1.221639E-04 -1.272266E-03 -1.852726E-04
        75 -2.814862E-05 -9.888479E-04 -2.986558E-04
        76  3.336780E-05 -7.242725E-04 -3.418459E-04
        77 -4.251160E-05 -2.933641E-04 -2.250498E-04
        89  1.223898E-04 -1.271969E-03 -1.852308E-04
        90  2.835740E-05 -9.887890E-04 -2.985916E-04
        91 -3.341703E-05 -7.242977E-04 -3.419281E-04
        92  4.251828E-05 -2.933736E-04 -2.251137E-04
        98  0.000000E+00  0.000000E+00  0.000000E+00
        99  0.000000E+00  0.000000E+00  0.000000E+00
       100  0.000000E+00  0.000000E+00  0.000000E+00
       101  0.000000E+00  0.000000E+00  0.000000E+00
       102  0.000000E+00  0.000000E+00  0.000000E+00
       124 -5.633980E-06 -1.172487E-03  1.745379E-04
       125  2.071829E-07 -1.399451E-03  1.832117E-04
       126  5.893092E-06 -1.172474E-03  1.746105E-04
       127  1.002808E-08 -1.030991E-03  3.302421E-04
       128  3.138119E-06 -7.592949E-04  3.669417E-04
       129  5.128555E-08 -7.043735E-04  3.741257E-04
       130 -3.100415E-06 -7.592888E-04  3.669524E-04
       131 -1.066919E-08 -2.973916E-04  2.185578E-04
       153 -1.011217E-04 -1.518000E-03  8.234228E-05
       154  3.355654E-07 -1.346121E-03 -3.643461E-08
       155  1.007502E-04 -1.520097E-03 -8.227005E-05
       156 -2.353784E-08 -1.113716E-03 -6.607963E-08
       157  2.029907E-05 -6.288842E-04  1.472050E-04
       158 -3.306434E-08 -6.420921E-04 -1.889664E-08
       159 -2.015616E-05 -6.284740E-04 -1.471789E-04
       160  2.016976E-08 -2.439644E-04  2.137828E-09
       182 -3.548483E-06 -1.171943E-03 -1.745330E-04
       183  2.280274E-07 -1.399928E-03 -1.831865E-04
       184  3.834128E-06 -1.171923E-03 -1.746469E-04
       185  9.410811E-09 -1.030962E-03 -3.300409E-04
       186  2.720559E-06 -7.594281E-04 -3.669566E-04
       187  5.884145E-08 -7.042708E-04 -3.740745E-04
       188 -2.671289E-06 -7.594156E-04 -3.669640E-04
       189 -7.049155E-09 -2.974241E-04 -2.185684E-04
       211 -1.006530E-04 -1.519869E-03 -8.239839E-05
       212 -1.799707E-07 -1.346135E-03  1.674621E-07
       213  1.012209E-04 -1.518236E-03  8.224752E-05
       214  2.811029E-08 -1.113706E-03 -1.018296E-07
       215  2.019443E-05 -6.285010E-04 -1.471885E-04
       216  1.202518E-07 -6.420881E-04 -7.321692E-08
       217 -2.026682E-05 -6.288459E-04  1.471946E-04
       218 -1.445467E-08 -2.439600E-04 -3.531025E-09
       250  6.563680E-08 -1.510693E-03  8.169062E-05
       251  7.254278E-07 -9.573089E-04  1.657149E-07
       252 -1.232369E-07 -1.219829E-03  9.515780E-08
       253 -7.416830E-07 -9.573076E-04 -4.502016E-08
       254  6.981267E-08 -1.509083E-03 -8.164830E-05
       255  5.308947E-08 -1.089844E-03 -1.530298E-08
       256  1.180724E-08 -6.200510E-04  1.642503E-04
       257 -1.468848E-07 -7.242570E-04 -3.033872E-08
       258 -1.903685E-08 -6.425173E-04 -1.385320E-08
       259  1.602453E-07 -7.242579E-04  2.306830E-08
       260  1.679609E-08 -6.204100E-04 -1.642634E-04
       261  1.659411E-08 -2.759795E-04  3.319960E-09

 forces (fx,fy,fz) for set NALL and time  0.1500000E-01

         5  1.326495E+00 -2.964325E-01 -7.352312E-01
         6 -1.326530E+00 -2.963436E-01 -7.342680E-01
         7  1.328135E+00 -2.959076E-01  7.349560E-01
         8 -1.328205E+00 -2.958178E-01  7.337966E-01
        21 -8.151917E-01  1.302358E+00 -7.095338E+00
        22 -1.175156E-03 -5.566243E-01 -1.126509E+00
        23  8.163177E-01  1.303373E+00 -7.095913E+00
        24 -9.125931E-01  4.650128E+00 -3.730733E+00
        25 -6.992212E-03 -1.910235E+00 -1.074530E-03
        26  9.158868E-01  4.652645E+00  3.730570E+00
        27 -8.213913E-01  1.299397E+00  7.094707E+00
        28 -1.271873E-03 -5.399408E-01  1.127469E+00
        29  8.225116E-01  1.300224E+00  7.095375E+00
        30 -9.157551E-01  4.651540E+00  3.732397E+00
        31  6.257761E-03 -1.910169E+00 -1.804583E-03
        32  9.125945E-01  4.651137E+00 -3.729114E+00
        44  4.935884E+00  1.191396E+01  5.948173E-01
        45  5.058125E-06 -4.142542E-01  1.039143E-01
        46  7.631974E-06  1.050155E+00 -3.156923E-01
        47 -1.505127E-05 -7.950406E-01  3.680824E-01
        48 -1.505099E-05 -7.950264E-01  3.680782E-01
        49  7.631268E-06  1.050144E+00 -3.156971E-01
        50  5.058972E-06 -4.142530E-01  1.039247E-01
        51 -4.935065E+00  1.191525E+01  5.985499E-01
        74 -4.940426E+00  1.190986E+01 -5.966843E-01
        75 -3.590995E-06 -4.142542E-01 -1.039196E-01
        76 -4.458717E-06  1.050155E+00  3.156864E-01
        77  1.116182E-05 -7.950406E-01 -3.680736E-01
        89  4.941684E+00  1.190819E+01 -5.915096E-01
        90 -3.591272E-06 -4.142530E-01 -1.039145E-01
        91 -4.458460E-06  1.050144E+00  3.156751E-01
        92  1.116131E-05 -7.950264E-01 -3.680592E-01
        98  9.324528E-05  1.016476E+01 -6.513683E+00
        99 -1.014262E-02 -3.096358E+00  1.071354E-03
       100  1.597255E-03 -4.162516E+00 -9.653241E-04
       101  9.257729E-03 -3.096376E+00  1.122558E-03
       102  2.201282E-05  1.013844E+01  6.512626E+00
       124  5.087422E+00  1.344497E+01 -3.724806E-01
       125  3.150154E-03  2.449586E+01  1.109141E+00
       126 -5.090425E+00  1.344155E+01 -3.686929E-01
       127  1.011725E-05 -8.285072E-01  2.078390E-01
       128 -1.715842E-05 -1.782012E+00  6.375471E-01
       129  1.526319E-05  2.100299E+00 -6.313894E-01
       130 -1.715908E-05 -1.782034E+00  6.375463E-01
       131 -3.010224E-05 -1.590067E+00  7.361607E-01
       153 -3.774036E+00 -4.089223E+01 -9.257502E-01
       154  6.552575E-02  2.604246E+01 -9.707979E-04
       155  3.739515E+00 -4.092112E+01  9.294671E-01
       156  1.466777E-06 -8.285084E-01 -5.272684E-06
       157 -1.385056E-05 -1.782038E+00  4.781608E-01
       158  3.173393E-06  2.100310E+00 -5.897540E-06
       159  6.002091E-06 -1.782038E+00 -4.781511E-01
       160 -3.889679E-06 -1.590081E+00  8.867811E-06
       182  5.132200E+00  1.348058E+01  3.705075E-01
       183  3.467833E-03  2.434424E+01 -1.103815E+00
       184 -5.135010E+00  1.347776E+01  3.643949E-01
       185 -7.181986E-06 -8.299651E-01 -2.078341E-01
       186  9.310963E-06 -1.783492E+00 -6.375332E-01
       187 -8.917242E-06  2.098841E+00  6.313615E-01
       188  9.310594E-06 -1.783470E+00 -6.375141E-01
       189  2.232311E-05 -1.591525E+00 -7.361328E-01
       211 -3.739582E+00 -4.091158E+01  9.195496E-01
       212 -6.744599E-02  2.604213E+01  7.791088E-03
       213  3.774655E+00 -4.090186E+01 -9.336562E-01
       214  1.468205E-06 -8.285060E-01  1.016791E-05
       215  6.001996E-06 -1.782008E+00 -4.781286E-01
       216  3.172681E-06  2.100287E+00 -2.201672E-05
       217 -1.384962E-05 -1.782008E+00  4.781650E-01
       218 -3.889554E-06 -1.590053E+00  1.900207E-05
       250  7.852267E-04 -8.273296E+01 -1.837565E+00
       251  9.691930E-02  3.745243E+01  3.902026E-03
       252 -6.382185E-03  5.494920E+01  7.214686E-03
       253 -9.259861E-02  3.745176E+01 -4.742726E-03
       254 -1.035751E-04 -8.250189E+01  1.830872E+00
       255  2.935372E-06 -1.657014E+00  4.894346E-06
       256 -2.770003E-05 -3.564046E+00  9.563258E-01
       257 -7.847451E-06 -3.564024E+00  3.305598E-05
       258  6.345950E-06  4.200597E+00 -2.791415E-05
       259 -7.848417E-06 -3.564068E+00  1.306568E-05
       260  1.200432E-05 -3.564046E+00 -9.562797E-01
       261 -7.779225E-06 -3.180134E+00  2.786979E-05

 displacements (vx,vy,vz) for set NALL and time  0.2000000E-01

         5  0.000000E+00  0.000000E+00  0.000000E+00
         6  0.000000E+00  0.000000E+00  0.000000E+00
         7  0.000000E+00  0.000000E+00  0.000000E+00
         8  0.000000E+00  0.000000E+00  0.000000E+00
        21  0.000000E+00  0.000000E+00  0.000000E+00
        22  0.000000E+00  0.000000E+00  0.000000E+00
        23  0.000000E+00  0.000000E+00  0.000000E+00
        24  0.000000E+00  0.000000E+00  0.000000E+00
        25  0.000000E+00  0.000000E+00  0.000000E+00
        26  0.000000E+00  0.000000E+00  0.000000E+00
        27  0.000000E+00  0.000000E+00  0.000000E+00
        28  0.000000E+00  0.000000E+00  0.000000E+00
        29  0.000000E+00  0.000000E+00  0.000000E+00
        30  0.000000E+00  0.000000E+00  0.000000E+00
        31  0.000000E+00  0.000000E+00  0.000000E+00
        32  0.000000E+00  0.000000E+00  0.000000E+00
        44 -9.405865E-05  9.887363E-04 -1.437978E-04
        45 -2.180552E-05  7.685274E-04 -2.317050E-04
        46  2.557506E-05  5.614431E-04 -2.655740E-04
        47 -3.317757E-05  2.274141E-04 -1.746831E-04
        48  3.317812E-05  2.274020E-04 -1.746520E-04
        49 -2.554270E-05  5.614439E-04 -2.655382E-04
        50  2.173937E-05  7.684982E-04 -2.317236E-04
        51  9.399299E-05  9.889107E-04 -1.438621E-04
        74  9.298755E-05  9.899012E-04  1.438396E-04
        75  2.112383E-05  7.690415E-04  2.318292E-04
        76 -2.524924E-05  5.612311E-04  2.655572E-04
        77  3.333292E-05  2.272579E-04  1.746414E-04
        89 -9.305689E-05  9.898220E-04  1.438176E-04
        90 -2.120665E-05  7.689896E-04  2.318006E-04
        91  2.524398E-05  5.612428E-04  2.655797E-04
        92 -3.334110E-05  2.272545E-04  1.746551E-04
        98  0.000000E+00  0.000000E+00  0.000000E+00
        99  0.000000E+00  0.000000E+00  0.000000E+00
       100  0.000000E+00  0.000000E+00  0.000000E+00
       101  0.000000E+00  0.000000E+00  0.000000E+00
       102  0.000000E+00  0.000000E+00  0.000000E+00
       124  4.018922E-06  9.096474E-04 -1.355912E-04
       125 -9.286984E-08  1.087500E-03 -1.422085E-04
       126 -4.127205E-06  9.096044E-04 -1.356041E-04
       127  3.905827E-09  8.000137E-04 -2.565293E-04
       128 -2.278215E-06  5.896815E-04 -2.849311E-04
       129 -1.858508E-08  5.471612E-04 -2.904351E-04
       130  2.271129E-06  5.896724E-04 -2.849391E-04
       131  5.651231E-09  2.309334E-04 -1.697452E-04
       153  7.763936E-05  1.177465E-03 -6.395121E-05
       154 -2.621275E-07  1.043867E-03  7.199317E-08
       155 -7.723421E-05  1.178321E-03  6.391259E-05
       156 -5.932414E-09  8.654868E-04  4.088434E-08
       157 -1.560286E-05  4.876549E-04 -1.143876E-04
       158  1.278306E-08  4.975724E-04  1.168945E-08
       159  1.550594E-05  4.874908E-04  1.143918E-04
       160  3.543930E-09  1.892462E-04 -1.100409E-09
       182  3.500900E-06  9.093396E-04  1.355324E-04
       183 -5.969919E-08  1.087562E-03  1.421799E-04
       184 -3.581363E-06  9.093408E-04  1.355584E-04
       185 -1.546820E-08  7.999647E-04  2.563926E-04
       186 -2.139834E-06  5.897295E-04  2.849473E-04
       187 -2.485927E-08  5.471057E-04  2.903742E-04
       188  2.108039E-06  5.897274E-04  2.849471E-04
       189 -2.292722E-09  2.309664E-04  1.697368E-04
       211  7.724180E-05  1.178223E-03  6.388434E-05
       212  2.542849E-07  1.043804E-03 -2.348679E-08
       213 -7.766174E-05  1.177545E-03 -6.388427E-05
       214 -1.715868E-08  8.655025E-04  4.636610E-08
       215 -1.552884E-05  4.874838E-04  1.144063E-04
       216 -3.534359E-08  4.975363E-04  3.464182E-08
       217  1.560411E-05  4.876324E-04 -1.143924E-04
       218 -9.014685E-09  1.892421E-04  8.143989E-09
       250 -4.177657E-08  1.175860E-03 -6.337103E-05
       251 -1.100273E-07  7.429249E-04  2.599144E-08