    1C
    1UUSER                                                              
    1UDATE              16.july.2018                                    
    1UTIME              13:18:32                                        
    1UHOST                                                              
    1UPGM               CalculiX                                        
    1UVERSION           Version 2.13                             
    1UCOMPILETIME       jue jun 14 00:40:39 CEST 2018                    
    1UDIR                                                               
    1UDBN                                                               
    1UMAT    1EL                                                        
    2C                           201                                     1
 -1         1 0.00000E+00 0.00000E+00 0.00000E+00
 -1         2 1.00000E+00 0.00000E+00 0.00000E+00
 -1         3 1.00000E+00 1.00000E+00 0.00000E+00
 -1         4 0.00000E+00 1.00000E+00 0.00000E+00
 -1         9 2.50000E-01 0.00000E+00 0.00000E+00
 -1        10 5.00000E-01 0.00000E+00 0.00000E+00
 -1        11 7.50000E-01 0.00000E+00 0.00000E+00
 -1        12 1.00000E+00 2.50000E-01 0.00000E+00
 -1        13 1.00000E+00 5.00000E-01 0.00000E+00
 -1        14 1.00000E+00 7.50000E-01 0.00000E+00
 -1        15 7.50000E-01 1.00000E+00 0.00000E+00
 -1        16 5.00000E-01 1.00000E+00 0.00000E+00
 -1        17 2.50000E-01 1.00000E+00 0.00000E+00
 -1        18 0.00000E+00 7.50000E-01 0.00000E+00
 -1        19 0.00000E+00 5.00000E-01 0.00000E+00
 -1        20 0.00000E+00 2.50000E-01 0.00000E+00
 -1        33 1.00000E+00 0.00000E+00 5.00000E-01
 -1        34 1.00000E+00 0.00000E+00 1.00000E+00
 -1        35 1.00000E+00 0.00000E+00 1.50000E+00
 -1        36 1.00000E+00 0.00000E+00 2.00000E+00
 -1        37 1.00000E+00 0.00000E+00 2.50000E+00
 -1        38 1.00000E+00 0.00000E+00 3.00000E+00
 -1        39 1.00000E+00 0.00000E+00 3.50000E+00
 -1        40 1.00000E+00 0.00000E+00 4.00000E+00
 -1        41 1.00000E+00 0.00000E+00 4.50000E+00
 -1        42 1.00000E+00 0.00000E+00 5.00000E+00
 -1        43 1.00000E+00 0.00000E+00 5.50000E+00
 -1        44 1.00000E+00 0.00000E+00 6.00000E+00
 -1        51 0.00000E+00 0.00000E+00 6.00000E+00
 -1        52 0.00000E+00 0.00000E+00 5.50000E+00
 -1        53 0.00000E+00 0.00000E+00 5.00000E+00
 -1        54 0.00000E+00 0.00000E+00 4.50000E+00
 -1        55 0.00000E+00 0.00000E+00 4.00000E+00
 -1        56 0.00000E+00 0.00000E+00 3.50000E+00
 -1        57 0.00000E+00 0.00000E+00 3.00000E+00
 -1        58 0.00000E+00 0.00000E+00 2.50000E+00
 -1        59 0.00000E+00 0.00000E+00 2.00000E+00
 -1        60 0.00000E+00 0.00000E+00 1.50000E+00
 -1        61 0.00000E+00 0.00000E+00 1.00000E+00
 -1        62 0.00000E+00 0.00000E+00 5.00000E-01
 -1        63 1.00000E+00 1.00000E+00 5.00000E-01
 -1        64 1.00000E+00 1.00000E+00 1.00000E+00
 -1        65 1.00000E+00 1.00000E+00 1.50000E+00
 -1        66 1.00000E+00 1.00000E+00 2.00000E+00
 -1        67 1.00000E+00 1.00000E+00 2.50000E+00
 -1        68 1.00000E+00 1.00000E+00 3.00000E+00
 -1        69 1.00000E+00 1.00000E+00 3.50000E+00
 -1        70 1.00000E+00 1.00000E+00 4.00000E+00
 -1        71 1.00000E+00 1.00000E+00 4.50000E+00
 -1        72 1.00000E+00 1.00000E+00 5.00000E+00
 -1        73 1.00000E+00 1.00000E+00 5.50000E+00
 -1        74 1.00000E+00 1.00000E+00 6.00000E+00
 -1        78 0.00000E+00 1.00000E+00 5.00000E-01
 -1        79 0.00000E+00 1.00000E+00 1.00000E+00
 -1        80 0.00000E+00 1.00000E+00 1.50000E+00
 -1        81 0.00000E+00 1.00000E+00 2.00000E+00
 -1        82 0.00000E+00 1.00000E+00 2.50000E+00
 -1        83 0.00000E+00 1.00000E+00 3.00000E+00
 -1        84 0.00000E+00 1.00000E+00 3.50000E+00
 -1        85 0.00000E+00 1.00000E+00 4.00000E+00
 -1        86 0.00000E+00 1.00000E+00 4.50000E+00
 -1        87 0.00000E+00 1.00000E+00 5.00000E+00
 -1        88 0.00000E+00 1.00000E+00 5.50000E+00
 -1        89 0.00000E+00 1.00000E+00 6.00000E+00
 -1        93 5.00000E-01 2.50000E-01 0.00000E+00
 -1        94 2.50000E-01 5.00000E-01 0.00000E+00
 -1        95 5.00000E-01 5.00000E-01 0.00000E+00
 -1        96 7.50000E-01 5.00000E-01 0.00000E+00
 -1        97 5.00000E-01 7.50000E-01 0.00000E+00
 -1       103 5.00000E-01 0.00000E+00 5.00000E-01
 -1       104 2.50000E-01 0.00000E+00 1.00000E+00
 -1       105 5.00000E-01 0.00000E+00 1.00000E+00
 -1       106 7.50000E-01 0.00000E+00 1.00000E+00
 -1       107 5.00000E-01 0.00000E+00 1.50000E+00
 -1       108 2.50000E-01 0.00000E+00 2.00000E+00
 -1       109 5.00000E-01 0.00000E+00 2.00000E+00
 -1       110 7.50000E-01 0.00000E+00 2.00000E+00
 -1       111 5.00000E-01 0.00000E+00 2.50000E+00
 -1       112 2.50000E-01 0.00000E+00 3.00000E+00
 -1       113 5.00000E-01 0.00000E+00 3.00000E+00
 -1       114 7.50000E-01 0.00000E+00 3.00000E+00
 -1       115 5.00000E-01 0.00000E+00 3.50000E+00
 -1       116 2.50000E-01 0.00000E+00 4.00000E+00
 -1       117 5.00000E-01 0.00000E+00 4.00000E+00
 -1       118 7.50000E-01 0.00000E+00 4.00000E+00
 -1       119 5.00000E-01 0.00000E+00 4.50000E+00
 -1       120 2.50000E-01 0.00000E+00 5.00000E+00
 -1       121 5.00000E-01 0.00000E+00 5.00000E+00
 -1       122 7.50000E-01 0.00000E+00 5.00000E+00
 -1       123 5.00000E-01 0.00000E+00 5.50000E+00
 -1       124 2.50000E-01 0.00000E+00 6.00000E+00
 -1       125 5.00000E-01 0.00000E+00 6.00000E+00
 -1       126 7.50000E-01 0.00000E+00 6.00000E+00
 -1       132 1.00000E+00 5.00000E-01 5.00000E-01
 -1       133 1.00000E+00 2.50000E-01 1.00000E+00
 -1       134 1.00000E+00 5.00000E-01 1.00000E+00
 -1       135 1.00000E+00 7.50000E-01 1.00000E+00
 -1       136 1.00000E+00 5.00000E-01 1.50000E+00
 -1       137 1.00000E+00 2.50000E-01 2.00000E+00
 -1       138 1.00000E+00 5.00000E-01 2.00000E+00
 -1       139 1.00000E+00 7.50000E-01 2.00000E+00
 -1       140 1.00000E+00 5.00000E-01 2.50000E+00
 -1       141 1.00000E+00 2.50000E-01 3.00000E+00
 -1       142 1.00000E+00 5.00000E-01 3.00000E+00
 -1       143 1.00000E+00 7.50000E-01 3.00000E+00
 -1       144 1.00000E+00 5.00000E-01 3.50000E+00
 -1       145 1.00000E+00 2.50000E-01 4.00000E+00
 -1       146 1.00000E+00 5.00000E-01 4.00000E+00
 -1       147 1.00000E+00 7.50000E-01 4.00000E+00
 -1       148 1.00000E+00 5.00000E-01 4.50000E+00
 -1       149 1.00000E+00 2.50000E-01 5.00000E+00
 -1       150 1.00000E+00 5.00000E-01 5.00000E+00
 -1       151 1.00000E+00 7.50000E-01 5.00000E+00
 -1       152 1.00000E+00 5.00000E-01 5.50000E+00
 -1       153 1.00000E+00 2.50000E-01 6.00000E+00
 -1       154 1.00000E+00 5.00000E-01 6.00000E+00
 -1       155 1.00000E+00 7.50000E-01 6.00000E+00
 -1       161 5.00000E-01 1.00000E+00 5.00000E-01
 -1       162 7.50000E-01 1.00000E+00 1.00000E+00
 -1       163 5.00000E-01 1.00000E+00 1.00000E+00
 -1       164 2.50000E-01 1.00000E+00 1.00000E+00
 -1       165 5.00000E-01 1.00000E+00 1.50000E+00
 -1       166 7.50000E-01 1.00000E+00 2.00000E+00
 -1       167 5.00000E-01 1.00000E+00 2.00000E+00
 -1       168 2.50000E-01 1.00000E+00 2.00000E+00
 -1       169 5.00000E-01 1.00000E+00 2.50000E+00
 -1       170 7.50000E-01 1.00000E+00 3.00000E+00
 -1       171 5.00000E-01 1.00000E+00 3.00000E+00
 -1       172 2.50000E-01 1.00000E+00 3.00000E+00
 -1       173 5.00000E-01 1.00000E+00 3.50000E+00
 -1       174 7.50000E-01 1.00000E+00 4.00000E+00
 -1       175 5.00000E-01 1.00000E+00 4.00000E+00
 -1       176 2.50000E-01 1.00000E+00 4.00000E+00
 -1       177 5.00000E-01 1.00000E+00 4.50000E+00
 -1       178 7.50000E-01 1.00000E+00 5.00000E+00
 -1       179 5.00000E-01 1.00000E+00 5.00000E+00
 -1       180 2.50000E-01 1.00000E+00 5.00000E+00
 -1       181 5.00000E-01 1.00000E+00 5.50000E+00
 -1       182 7.50000E-01 1.00000E+00 6.00000E+00
 -1       183 5.00000E-01 1.00000E+00 6.00000E+00
 -1       184 2.50000E-01 1.00000E+00 6.00000E+00
 -1       190 0.00000E+00 5.00000E-01 5.00000E-01
 -1       191 0.00000E+00 7.50000E-01 1.00000E+00
 -1       192 0.00000E+00 5.00000E-01 1.00000E+00
 -1       193 0.00000E+00 2.50000E-01 1.00000E+00
 -1       194 0.00000E+00 5.00000E-01 1.50000E+00
 -1       195 0.00000E+00 7.50000E-01 2.00000E+00
 -1       196 0.00000E+00 5.00000E-01 2.00000E+00
 -1       197 0.00000E+00 2.50000E-01 2.00000E+00
 -1       198 0.00000E+00 5.00000E-01 2.50000E+00
 -1       199 0.00000E+00 7.50000E-01 3.00000E+00
 -1       200 0.00000E+00 5.00000E-01 3.00000E+00
 -1       201 0.00000E+00 2.50000E-01 3.00000E+00
 -1       202 0.00000E+00 5.00000E-01 3.50000E+00
 -1       203 0.00000E+00 7.50000E-01 4.00000E+00
 -1       204 0.00000E+00 5.00000E-01 4.00000E+00
 -1       205 0.00000E+00 2.50000E-01 4.00000E+00
 -1       206 0.00000E+00 5.00000E-01 4.50000E+00
 -1       207 0.00000E+00 7.50000E-01 5.00000E+00
 -1       208 0.00000E+00 5.00000E-01 5.00000E+00
 -1       209 0.00000E+00 2.50000E-01 5.00000E+00
 -1       210 0.00000E+00 5.00000E-01 5.50000E+00
 -1       211 0.00000E+00 7.50000E-01 6.00000E+00
 -1       212 0.00000E+00 5.00000E-01 6.00000E+00
 -1       213 0.00000E+00 2.50000E-01 6.00000E+00
 -1       219 5.00000E-01 5.00000E-01 5.00000E-01
 -1       220 5.00000E-01 2.50000E-01 1.00000E+00
 -1       221 2.50000E-01 5.00000E-01 1.00000E+00
 -1       222 5.00000E-01 5.00000E-01 1.00000E+00
 -1       223 7.50000E-01 5.00000E-01 1.00000E+00
 -1       224 5.00000E-01 7.50000E-01 1.00000E+00
 -1       225 5.00000E-01 5.00000E-01 1.50000E+00
 -1       226 5.00000E-01 2.50000E-01 2.00000E+00
 -1       227 2.50000E-01 5.00000E-01 2.00000E+00
 -1       228 5.00000E-01 5.00000E-01 2.00000E+00
 -1       229 7.50000E-01 5.00000E-01 2.00000E+00
 -1       230 5.00000E-01 7.50000E-01 2.00000E+00
 -1       231 5.00000E-01 5.00000E-01 2.50000E+00
 -1       232 5.00000E-01 2.50000E-01 3.00000E+00
 -1       233 2.50000E-01 5.00000E-01 3.00000E+00
 -1       234 5.00000E-01 5.00000E-01 3.00000E+00
 -1       235 7.50000E-01 5.00000E-01 3.00000E+00
 -1       236 5.00000E-01 7.50000E-01 3.00000E+00
 -1       237 5.00000E-01 5.00000E-01 3.50000E+00
 -1       238 5.00000E-01 2.50000E-01 4.00000E+00
 -1       239 2.50000E-01 5.00000E-01 4.00000E+00
 -1       240 5.00000E-01 5.00000E-01 4.00000E+00
 -1       241 7.50000E-01 5.00000E-01 4.00000E+00
 -1       242 5.00000E-01 7.50000E-01 4.00000E+00
 -1       243 5.00000E-01 5.00000E-01 4.50000E+00
 -1       244 5.00000E-01 2.50000E-01 5.00000E+00
 -1       245 2.50000E-01 5.00000E-01 5.00000E+00
 -1       246 5.00000E-01 5.00000E-01 5.00000E+00
 -1       247 7.50000E-01 5.00000E-01 5.00000E+00
 -1       248 5.00000E-01 7.50000E-01 5.00000E+00
 -1       249 5.00000E-01 5.00000E-01 5.50000E+00
 -1       250 5.00000E-01 2.50000E-01 6.00000E+00
 -1       251 2.50000E-01 5.00000E-01 6.00000E+00
 -1       252 5.00000E-01 5.00000E-01 6.00000E+00
 -1       253 7.50000E-01 5.00000E-01 6.00000E+00
 -1       254 5.00000E-01 7.50000E-01 6.00000E+00
 -3
    3C                            24                                     1
 -1         1    4    0    1
 -2         1        10        95        19        61       105       222       192         9        93
 -2        94        20        62       103       219       190       104       220       221       193
 -1         2    4    0    1
 -2        10         2        13        95       105        34       134       222        11        12
 -2        96        93       103        33       132       219       106       133       223       220
 -1         3    4    0    1
 -2        19        95        16         4       192       222       163        79        94        97
 -2        17        18       190       219       161        78       221       224       164       191
 -1         4    4    0    1
 -2        95        13         3        16       222       134        64       163        96        14
 -2        15        97       219       132        63       161       223       135       162       224
 -1         5    4    0    1
 -2        61       105       222       192        59       109       228       196       104       220
 -2       221       193        60       107       225       194       108       226       227       197
 -1         6    4    0    1
 -2       105        34       134       222       109        36       138       228       106       133
 -2       223       220       107        35       136       225       110       137       229       226
 -1         7    4    0    1
 -2       192       222       163        79       196       228       167        81       221       224
 -2       164       191       194       225       165        80       227       230       168       195
 -1         8    4    0    1
 -2       222       134        64       163       228       138        66       167       223       135
 -2       162       224       225       136        65       165       229       139       166       230
 -1         9    4    0    1
 -2        59       109       228       196        57       113       234       200       108       226
 -2       227       197        58       111       231       198       112       232       233       201
 -1        10    4    0    1
 -2       109        36       138       228       113        38       142       234       110       137
 -2       229       226       111        37       140       231       114       141       235       232
 -1        11    4    0    1
 -2       196       228       167        81       200       234       171        83       227       230
 -2       168       195       198       231       169        82       233       236       172       199
 -1        12    4    0    1
 -2       228       138        66       167       234       142        68       171       229       139
 -2       166       230       231       140        67       169       235       143       170       236
 -1        13    4    0    1
 -2        57       113       234       200        55       117       240       204       112       232
 -2       233       201        56       115       237       202       116       238       239       205
 -1        14    4    0    1
 -2       113        38       142       234       117        40       146       240       114       141
 -2       235       232       115        39       144       237       118       145       241       238
 -1        15    4    0    1
 -2       200       234       171        83       204       240       175        85       233       236
 -2       172       199       202       237       173        84       239       242       176       203
 -1        16    4    0    1
 -2       234       142        68       171       240       146        70       175       235       143
 -2       170       236       237       144        69       173       241       147       174       242
 -1        17    4    0    1
 -2        55       117       240       204        53       121       246       208       116       238
 -2       239       205        54       119       243       206       120       244       245       209
 -1        18    4    0    1
 -2       117        40       146       240       121        42       150       246       118       145
 -2       241       238       119        41       148       243       122       149       247       244
 -1        19    4    0    1
 -2       204       240       175        85       208       246       179        87       239       242
 -2       176       203       206       243       177        86       245       248       180       207
 -1        20    4    0    1
 -2       240       146        70       175       246       150        72       179       241       147
 -2       174       242       243       148        71       177       247       151       178       248
 -1        21    4    0    1
 -2        53       121       246       208        51       125       252       212       120       244
 -2       245       209        52       123       249       210       124       250       251       213
 -1        22    4    0    1
 -2       121        42       150       246       125        44       154       252       122       149
 -2       247       244       123        43       152       249       126       153       253       250
 -1        23    4    0    1
 -2       208       246       179        87       212       252       183        89       245       248
 -2       180       207       210       249       181        88       251       254       184       211
 -1        24    4    0    1
 -2       246       150        72       179       252       154        74       183       247       151
 -2       178       248       249       152        73       181       253       155       182       254
 -3
    1PSTEP                         1           1           1          
  100CL  101 5.00000E-03         201                     1    1           1
 -4  DISP        4    1
 -5  D1          1    2    1    0
 -5  D2          1    2    2    0
 -5  D3          1    2    3    0
 -5  ALL         1    2    0    0    1ALL
 -1         1 0.00000E+00 0.00000E+00 0.00000E+00
 -1         2 0.00000E+00 0.00000E+00 0.00000E+00
 -1         3 0.00000E+00 0.00000E+00 0.00000E+00
 -1         4 0.00000E+00 0.00000E+00 0.00000E+00
 -1         9 0.00000E+00 0.00000E+00 0.00000E+00
 -1        10 0.00000E+00 0.00000E+00 0.00000E+00
 -1        11 0.00000E+00 0.00000E+00 0.00000E+00
 -1        12 0.00000E+00 0.00000E+00 0.00000E+00
 -1        13 0.00000E+00 0.00000E+00 0.00000E+00
 -1        14 0.00000E+00 0.00000E+00 0.00000E+00
 -1        15 0.00000E+00 0.00000E+00 0.00000E+00
 -1        16 0.00000E+00 0.00000E+00 0.00000E+00
 -1        17 0.00000E+00 0.00000E+00 0.00000E+00
 -1        18 0.00000E+00 0.00000E+00 0.00000E+00
 -1        19 0.00000E+00 0.00000E+00 0.00000E+00
 -1        20 0.00000E+00 0.00000E+00 0.00000E+00
 -1        33 6.35275E-05-1.54298E-04-2.03274E-04
 -1        34 3.14405E-05-4.77683E-04-3.72359E-04
 -1        35 2.57909E-05-9.63039E-04-4.81856E-04
 -1        36 8.45395E-06-1.51719E-03-5.39243E-04
 -1        37-3.44253E-06-2.09478E-03-5.47111E-04
 -1        38-1.82021E-05-2.67414E-03-5.19597E-04
 -1        39-4.49519E-05-3.18041E-03-3.87419E-04
 -1        40-4.72282E-05-3.53512E-03-2.13015E-04
 -1        41-2.85551E-05-3.54282E-03-7.06645E-05
 -1        42-2.31441E-05-3.68237E-03-1.55776E-04
 -1        43-1.07392E-06-3.54420E-03 7.37757E-05
 -1        44-1.54938E-04-3.63791E-03 4.41065E-04
 -1        51 1.52646E-04-3.63175E-03 4.40818E-04
 -1        52 1.69647E-06-3.54284E-03 7.31331E-05
 -1        53 2.60557E-05-3.68358E-03-1.56044E-04
 -1        54 3.09048E-05-3.54334E-03-7.03770E-05
 -1        55 4.86774E-05-3.53469E-03-2.12852E-04
 -1        56 4.64736E-05-3.18031E-03-3.87199E-04
 -1        57 1.94690E-05-2.67418E-03-5.19335E-04
 -1        58 4.45688E-06-2.09476E-03-5.46817E-04
 -1        59-7.80332E-06-1.51714E-03-5.38973E-04
 -1        60-2.53512E-05-9.63012E-04-4.81630E-04
 -1        61-3.12374E-05-4.77658E-04-3.72189E-04
 -1        62-6.34553E-05-1.54271E-04-2.03178E-04
 -1        63-6.19353E-05-1.52275E-04 1.98893E-04
 -1        64-3.07134E-05-4.76931E-04 3.63247E-04
 -1        65-2.31828E-05-9.61803E-04 4.68839E-04
 -1        66-7.84525E-06-1.52197E-03 5.22057E-04
 -1        67 6.06351E-06-2.08723E-03 5.26031E-04
 -1        68 1.65038E-05-2.67802E-03 4.90248E-04
 -1        69 5.59547E-05-3.18349E-03 3.55807E-04
 -1        70 6.08076E-05-3.60668E-03 1.82310E-04
 -1        71 7.45108E-06-3.45770E-03 3.33748E-05
 -1        72-7.37991E-05-3.50094E-03 8.22571E-05
 -1        73 1.52384E-04-3.82407E-03-1.58798E-04
 -1        74 2.38837E-04-4.31421E-03-4.92740E-04
 -1        78 6.20109E-05-1.52308E-04 1.98992E-04
 -1        79 3.09212E-05-4.76936E-04 3.63407E-04
 -1        80 2.36469E-05-9.61811E-04 4.69070E-04
 -1        81 8.52286E-06-1.52195E-03 5.22333E-04
 -1        82-5.01385E-06-2.08725E-03 5.26334E-04
 -1        83-1.52638E-05-2.67790E-03 4.90452E-04
 -1        84-5.43288E-05-3.18352E-03 3.56017E-04
 -1        85-5.91784E-05-3.60673E-03 1.82583E-04
 -1        86-5.20537E-06-3.45767E-03 3.37374E-05
 -1        87 7.58933E-05-3.50000E-03 8.12520E-05
 -1        88-1.50816E-04-3.82426E-03-1.59703E-04
 -1        89-2.37575E-04-4.31658E-03-4.92860E-04
 -1        93 0.00000E+00 0.00000E+00 0.00000E+00
 -1        94 0.00000E+00 0.00000E+00 0.00000E+00
 -1        95 0.00000E+00 0.00000E+00 0.00000E+00
 -1        96 0.00000E+00 0.00000E+00 0.00000E+00
 -1        97 0.00000E+00 0.00000E+00 0.00000E+00
 -1       103 2.58544E-08-1.80366E-04-1.99365E-04
 -1       104-1.54985E-05-4.97211E-04-3.78149E-04
 -1       105 1.09435E-07-4.99631E-04-3.80683E-04
 -1       106 1.57034E-05-4.97228E-04-3.78226E-04
 -1       107 2.11956E-07-9.72751E-04-4.84460E-04
 -1       108-3.06077E-06-1.51868E-03-5.42626E-04
 -1       109 3.62559E-07-1.53020E-03-5.42196E-04
 -1       110 3.75970E-06-1.51868E-03-5.42761E-04
 -1       111 4.73195E-07-2.08664E-03-5.50422E-04
 -1       112 7.40030E-06-2.70227E-03-5.22045E-04
 -1       113 6.45098E-07-2.69322E-03-5.22356E-04
 -1       114-6.16645E-06-2.70235E-03-5.22153E-04
 -1       115 7.95367E-07-3.13837E-03-3.95346E-04
 -1       116 3.50159E-05-3.49775E-03-2.07036E-04
 -1       117 1.07606E-06-3.63202E-03-1.90756E-04
 -1       118-3.30341E-05-3.49754E-03-2.07158E-04
 -1       119 7.40243E-07-3.52820E-03-7.19290E-05
 -1       120-2.02403E-05-3.91468E-03-1.23391E-04
 -1       121 1.06559E-06-3.72810E-03-1.23220E-04
 -1       122 2.20650E-05-3.91586E-03-1.23162E-04
 -1       123 1.36526E-06-3.50072E-03-1.77998E-05
 -1       124 1.87988E-04-2.89764E-03 4.19767E-04
 -1       125 3.63243E-06-3.68479E-03 4.42643E-04
 -1       126-1.82764E-04-2.89344E-03 4.19883E-04
 -1       132 8.68536E-07-1.17478E-04-2.11750E-06
 -1       133 1.62679E-05-4.65458E-04-1.77653E-04
 -1       134 1.06323E-06-4.70058E-04-4.05763E-06
 -1       135-1.51035E-05-4.65393E-04 1.68903E-04
 -1       136 3.38346E-07-9.45099E-04-7.05424E-06
 -1       137 5.40116E-06-1.51468E-03-2.69127E-04
 -1       138 1.08005E-06-1.50635E-03-9.19499E-06
 -1       139-3.19063E-06-1.51569E-03 2.51638E-04
 -1       140 2.04284E-06-2.11023E-03-1.19962E-05
 -1       141-9.61993E-06-2.66100E-03-2.46176E-04
 -1       142 5.75004E-06-2.66883E-03-9.54433E-06
 -1       143 1.15758E-05-2.66816E-03 2.20702E-04
 -1       144-6.15193E-06-3.19888E-03-1.61872E-05
 -1       145-1.77647E-05-3.54803E-03-1.36938E-04
 -1       146-1.13822E-05-3.44568E-03-2.62566E-05
 -1       147 2.01245E-05-3.56487E-03 9.77676E-05
 -1       148 2.42108E-05-3.66485E-03-2.67680E-05
 -1       149-3.48955E-05-3.39213E-03-5.15388E-05
 -1       150 7.65891E-05-3.44819E-03-1.18581E-05
 -1       151 2.20600E-05-3.35809E-03-1.42270E-06
 -1       152-1.04370E-04-3.70357E-03-6.26873E-06
 -1       153 9.29077E-05-3.72939E-03 1.84919E-04
 -1       154-1.28218E-04-2.51130E-03-2.52191E-05
 -1       155-3.54952E-05-3.86803E-03-2.39410E-04
 -1       161 2.53359E-08-1.78801E-04 1.94929E-04
 -1       162-1.50972E-05-4.96123E-04 3.69740E-04
 -1       163 1.14828E-07-4.96940E-04 3.72048E-04
 -1       164 1.53109E-05-4.96130E-04 3.69814E-04
 -1       165 2.18820E-07-9.72531E-04 4.71802E-04
 -1       166-3.67843E-06-1.51581E-03 5.25624E-04
 -1       167 3.81100E-07-1.52503E-03 5.27618E-04
 -1       168 4.40282E-06-1.51578E-03 5.25756E-04
 -1       169 4.84735E-07-2.08797E-03 5.26380E-04
 -1       170 8.67460E-06-2.69969E-03 4.97302E-04
 -1       171 6.74158E-07-2.66298E-03 4.94045E-04
 -1       172-7.40077E-06-2.69971E-03 4.97396E-04
 -1       173 8.08690E-07-3.15874E-03 3.65842E-04
 -1       174 3.00240E-05-3.44409E-03 1.70098E-04
 -1       175 1.12979E-06-3.54076E-03 1.69517E-04
 -1       176-2.79927E-05-3.44382E-03 1.70237E-04
 -1       177 7.62336E-07-3.49492E-03 2.09359E-05
 -1       178-3.04735E-05-3.98729E-03 7.41027E-05
 -1       179 1.09040E-06-3.57152E-03 5.57540E-05
 -1       180 3.22857E-05-3.98809E-03 7.36270E-05
 -1       181 1.37692E-06-3.68033E-03-4.93315E-05
 -1       182 8.15555E-05-2.60606E-03-4.71792E-04
 -1       183 4.56954E-06-4.30586E-03-4.76187E-04
 -1       184-7.50354E-05-2.60203E-03-4.72019E-04
 -1       190-7.85915E-07-1.17479E-04-2.02845E-06
 -1       191 1.53217E-05-4.65399E-04 1.69073E-04
 -1       192-8.47403E-07-4.70058E-04-3.89085E-06
 -1       193-1.60524E-05-4.65442E-04-1.77482E-04
 -1       194 1.28552E-07-9.45088E-04-6.81930E-06
 -1       195 3.87764E-06-1.51567E-03 2.51890E-04
 -1       196-3.59906E-07-1.50635E-03-8.93422E-06
 -1       197-4.71247E-06-1.51466E-03-2.68873E-04
 -1       198-1.05069E-06-2.11019E-03-1.17550E-05
 -1       199-1.03328E-05-2.66815E-03 2.20951E-04
 -1       200-4.60878E-06-2.66882E-03-9.33088E-06
 -1       201 1.08281E-05-2.66096E-03-2.45912E-04
 -1       202 7.87161E-06-3.19887E-03-1.58893E-05
 -1       203-1.84927E-05-3.56476E-03 9.79351E-05
 -1       204 1.34187E-05-3.44585E-03-2.59748E-05
 -1       205 1.95252E-05-3.54808E-03-1.36784E-04
 -1       206-2.26695E-05-3.66465E-03-2.69153E-05
 -1       207-2.03443E-05-3.35833E-03-1.67230E-06
 -1       208-7.67124E-05-3.44794E-03-1.18938E-05
 -1       209 3.60426E-05-3.39187E-03-5.15339E-05
 -1       210 1.08670E-04-3.70401E-03-5.92718E-06
 -1       211 3.56388E-05-3.86734E-03-2.39841E-04
 -1       212 1.32915E-04-2.51431E-03-2.55020E-05
 -1       213-9.04560E-05-3.73083E-03 1.84543E-04
 -1       219 3.29187E-08-1.43067E-04-1.84543E-06
 -1       220 1.16337E-07-4.85159E-04-1.83236E-04
 -1       221-3.33588E-07-4.86491E-04-4.54908E-06
 -1       222 1.16152E-07-4.87829E-04-4.79387E-06
 -1       223 5.57650E-07-4.86489E-04-4.63042E-06
 -1       224 1.18915E-07-4.83628E-04 1.74424E-04
 -1       225 2.22385E-07-9.57375E-04-6.54723E-06
 -1       226 3.60385E-07-1.52209E-03-2.73095E-04
 -1       227-1.37205E-07-1.50757E-03-8.94972E-06
 -1       228 3.74191E-07-1.50920E-03-1.04273E-05
 -1       229 8.56403E-07-1.50757E-03-9.05999E-06
 -1       230 3.70122E-07-1.51998E-03 2.54420E-04
 -1       231 4.90701E-07-2.10907E-03-1.00396E-05
 -1       232 6.77271E-07-2.66960E-03-2.51670E-04
 -1       233-1.22408E-06-2.66516E-03-1.55757E-05
 -1       234 6.40834E-07-2.66185E-03-1.72501E-05
 -1       235 2.49967E-06-2.66513E-03-1.57103E-05
 -1       236 6.90733E-07-2.65240E-03 2.23626E-04
 -1       237 7.99656E-07-3.17285E-03-1.28552E-05
 -1       238 9.16998E-07-3.59281E-03-1.28265E-04
 -1       239 5.35157E-06-3.43378E-03-1.91401E-05
 -1       240 1.02835E-06-3.45554E-03-2.39572E-05
 -1       241-3.54696E-06-3.43384E-03-1.91918E-05
 -1       242 9.45252E-07-3.55325E-03 8.63621E-05
 -1       243 8.54260E-07-3.63999E-03-2.62004E-05
 -1       244 1.33664E-06-3.50251E-03-2.85842E-05
 -1       245-2.32261E-05-3.59777E-03-2.87288E-05
 -1       246 5.20641E-07-3.63248E-03-2.26964E-05
 -1       247 2.46486E-05-3.59729E-03-2.89675E-05
 -1       248 1.37593E-06-3.41932E-03-1.05919E-05
 -1       249 1.34734E-06-3.51988E-03-1.88891E-05
 -1       250 4.67003E-07-4.06882E-03 1.69765E-04
 -1       251 9.74969E-06-2.57474E-03-1.37592E-05
 -1       252 1.70134E-06-3.09066E-03-1.98822E-05
 -1       253-9.45564E-06-2.57571E-03-1.33494E-05
 -1       254 7.70706E-07-4.39278E-03-2.54161E-04
 -3
    1PSTEP                         2           2           1          
  100CL  102 1.00000E-02         201                     1    2           1
 -4  DISP        4    1
 -5  D1          1    2    1    0
 -5  D2          1    2    2    0
 -5  D3          1    2    3    0
 -5  ALL         1    2    0    0    1ALL
 -1         1 0.00000E+00 0.00000E+00 0.00000E+00
 -1         2 0.00000E+00 0.00000E+00 0.00000E+00
 -1         3 0.00000E+00 0.00000E+00 0.00000E+00
 -1         4 0.00000E+00 0.00000E+00 0.00000E+00
 -1         9 0.00000E+00 0.00000E+00 0.00000E+00
 -1        10 0.00000E+00 0.00000E+00 0.00000E+00
 -1        11 0.00000E+00 0.00000E+00 0.00000E+00
 -1        12 0.00000E+00 0.00000E+00 0.00000E+00
 -1        13 0.00000E+00 0.00000E+00 0.00000E+00
 -1        14 0.00000E+00 0.00000E+00 0.00000E+00
 -1        15 0.00000E+00 0.00000E+00 0.00000E+00
 -1        16 0.00000E+00 0.00000E+00 0.00000E+00
 -1        17 0.00000E+00 0.00000E+00 0.00000E+00
 -1        18 0.00000E+00 0.00000E+00 0.00000E+00
 -1        19 0.00000E+00 0.00000E+00 0.00000E+00
 -1        20 0.00000E+00 0.00000E+00 0.00000E+00
 -1        33-2.99139E-05 7.27258E-05 9.58820E-05
 -1        34-1.49204E-05 2.25898E-04 1.75567E-04
 -1        35-1.24165E-05 4.56614E-04 2.28452E-04
 -1        36-5.15092E-06 7.20996E-04 2.56062E-04
 -1        37 2.19444E-06 1.00046E-03 2.61069E-04
 -1        38 1.00680E-05 1.28392E-03 2.44567E-04
 -1        39 2.11236E-05 1.52419E-03 1.86225E-04
 -1        40 1.42487E-05 1.70388E-03 9.83576E-05
 -1        41 2.19100E-05 1.72300E-03 3.78171E-05
 -1        42 1.42403E-05 1.78350E-03 3.86251E-05
 -1        43 9.81364E-06 1.72647E-03-4.23556E-05
 -1        44-8.74455E-05 1.74671E-03-2.12988E-04
 -1        51 9.01905E-05 1.74127E-03-2.12943E-04
 -1        52-9.78943E-06 1.72526E-03-4.19294E-05
 -1        53-1.61555E-05 1.78474E-03 3.88632E-05
 -1        54-2.33065E-05 1.72358E-03 3.75901E-05
 -1        55-1.48813E-05 1.70359E-03 9.82598E-05
 -1        56-2.18925E-05 1.52418E-03 1.86110E-04
 -1        57-1.07035E-05 1.28403E-03 2.44444E-04
 -1        58-2.71235E-06 1.00051E-03 2.60923E-04
 -1        59 4.84281E-06 7.21001E-04 2.55935E-04
 -1        60 1.21919E-05 4.56632E-04 2.28352E-04
 -1        61 1.48162E-05 2.25907E-04 1.75494E-04
 -1        62 2.98712E-05 7.27260E-05 9.58400E-05
 -1        63 2.95911E-05 7.24738E-05-9.51018E-05
 -1        64 1.45448E-05 2.25724E-04-1.74122E-04
 -1        65 1.23445E-05 4.55990E-04-2.26205E-04
 -1        66 5.07162E-06 7.19639E-04-2.53165E-04
 -1        67-4.07393E-06 1.00217E-03-2.57579E-04
 -1        68-1.33801E-05 1.28649E-03-2.41018E-04
 -1        69-1.65827E-05 1.51819E-03-1.81947E-04
 -1        70-6.41618E-06 1.68852E-03-9.35081E-05
 -1        71-4.43388E-05 1.75248E-03-3.20602E-05
 -1        72-6.72208E-05 1.84671E-03-3.47804E-05
 -1        73 8.12921E-05 1.61899E-03 4.48581E-05
 -1        74 2.28310E-04 1.53267E-03 2.18114E-04
 -1        78-2.96145E-05 7.25004E-05-9.51460E-05