
 displacements (vx,vy,vz) for set NALL and time  0.5000000E-02

         5  0.000000E+00  0.000000E+00  0.000000E+00
         6  0.000000E+00  0.000000E+00  0.000000E+00
         7  0.000000E+00  0.000000E+00  0.000000E+00
         8  0.000000E+00  0.000000E+00  0.000000E+00
        21  0.000000E+00  0.000000E+00  0.000000E+00
        22  0.000000E+00  0.000000E+00  0.000000E+00
        23  0.000000E+00  0.000000E+00  0.000000E+00
        24  0.000000E+00  0.000000E+00  0.000000E+00
        25  0.000000E+00  0.000000E+00  0.000000E+00
        26  0.000000E+00  0.000000E+00  0.000000E+00
        27  0.000000E+00  0.000000E+00  0.000000E+00
        28  0.000000E+00  0.000000E+00  0.000000E+00
        29  0.000000E+00  0.000000E+00  0.000000E+00
        30  0.000000E+00  0.000000E+00  0.000000E+00
        31  0.000000E+00  0.000000E+00  0.000000E+00
        32  0.000000E+00  0.000000E+00  0.000000E+00
        44 -5.898568E-05 -3.464179E-03  4.487668E-04
        45  5.695604E-05 -2.561550E-03  7.853958E-04
        46 -4.790831E-05 -1.796328E-03  9.490719E-04
        47  1.309461E-04 -6.752406E-04  5.432730E-04
        48 -1.309211E-04 -6.752216E-04  5.432239E-04
        49  4.803785E-05 -1.796300E-03  9.489620E-04
        50 -5.671247E-05 -2.561544E-03  7.851932E-04
        51  5.957186E-05 -3.464073E-03  4.484101E-04
        74  3.163285E-04 -4.406434E-03 -4.942407E-04
        75  1.896194E-04 -2.969549E-03 -7.844423E-04
        76 -1.092596E-04 -1.599335E-03 -9.499850E-04
        77 -2.073750E-04 -5.275525E-04 -5.582928E-04
        89 -3.157430E-04 -4.406532E-03 -4.945887E-04
        90 -1.893747E-04 -2.969555E-03 -7.846409E-04
        91  1.093882E-04 -1.599363E-03 -9.500950E-04
        92  2.073998E-04 -5.275722E-04 -5.583423E-04
        98  0.000000E+00  0.000000E+00  0.000000E+00
        99  0.000000E+00  0.000000E+00  0.000000E+00
       100  0.000000E+00  0.000000E+00  0.000000E+00
       101  0.000000E+00  0.000000E+00  0.000000E+00
       102  0.000000E+00  0.000000E+00  0.000000E+00
       124  1.508142E-04 -2.966226E-03  4.295105E-04
       125  2.243158E-07 -3.589620E-03  4.488825E-04
       126 -1.503047E-04 -2.966260E-03  4.296326E-04
       127  1.427141E-07 -2.563036E-03  9.035432E-04
       128 -9.298906E-06 -1.952727E-03  9.481155E-04
       129  4.142187E-08 -1.814074E-03  9.415291E-04
       130  9.402627E-06 -1.952745E-03  9.481828E-04
       131  8.551378E-09 -7.363627E-04  5.563108E-04
       153  6.953884E-05 -3.637517E-03  1.912583E-04
       154 -1.196531E-04 -2.504357E-03 -2.061805E-05
       155 -6.383319E-05 -3.888982E-03 -2.379426E-04
       156 -1.196014E-04 -2.789424E-03 -6.431182E-05
       157 -2.043983E-05 -1.509032E-03  3.923136E-04
       158  8.824246E-05 -1.567157E-03 -2.924877E-05
       159  4.670480E-05 -1.475974E-03 -4.109283E-04
       160  3.968114E-05 -6.564782E-04  4.899823E-06
       182  1.155956E-04 -2.564654E-03 -4.711939E-04
       183  2.236368E-07 -4.352628E-03 -4.762460E-04
       184 -1.150886E-04 -2.564685E-03 -4.713142E-04
       185  1.432216E-07 -2.832893E-03 -8.743900E-04
       186 -4.400554E-05 -2.161801E-03 -9.825621E-04
       187  4.107010E-08 -1.831973E-03 -9.637782E-04
       188  4.410892E-05 -2.161818E-03 -9.826290E-04
       189  8.536497E-09 -7.201277E-04 -5.644687E-04
       211  6.448079E-05 -3.889024E-03 -2.382676E-04
       212  1.203615E-04 -2.504358E-03 -2.098060E-05
       213 -6.888574E-05 -3.637472E-03  1.909315E-04
       214  1.198348E-04 -2.789425E-03 -6.452125E-05
       215 -4.655822E-05 -1.475988E-03 -4.110463E-04
       216 -8.808530E-05 -1.567157E-03 -2.935929E-05
       217  2.058567E-05 -1.509016E-03  3.921952E-04
       218 -3.965107E-05 -6.564779E-04  4.863482E-06
       250  2.209290E-07 -4.079807E-03  1.746234E-04
       251  3.038950E-05 -2.571818E-03 -1.060380E-05
       252  2.133175E-07 -3.123785E-03 -1.658329E-05
       253 -2.984227E-05 -2.571821E-03 -1.054038E-05
       254  2.193676E-07 -4.410573E-03 -2.540088E-04
       255  1.589622E-07 -2.599654E-03 -3.208578E-05
       256  3.853314E-08 -1.607525E-03  3.956917E-04
       257 -4.092686E-05 -1.749491E-03 -1.208117E-05
       258  3.390640E-08 -1.789963E-03 -1.449412E-05
       259  4.103904E-05 -1.749491E-03 -1.199978E-05
       260  3.862735E-08 -1.622746E-03 -4.184233E-04
       261  1.534075E-08 -7.169566E-04 -1.923707E-06

 forces (fx,fy,fz) for set NALL and time  0.5000000E-02

         5  2.309265E+00 -4.178781E+00 -1.103931E+00
         6 -2.309645E+00 -4.178597E+00 -1.104310E+00
         7  3.473495E+00  1.060580E+00  1.266338E+00
         8 -3.473901E+00  1.060785E+00  1.266713E+00
        21 -2.805666E+00  5.572463E+00 -1.789584E+01
        22 -4.721270E-05 -9.860881E+00 -6.643626E-01
        23  2.806187E+00  5.573052E+00 -1.789631E+01
        24 -4.630132E+00  1.711466E+01 -1.022193E+01
        25  8.569001E-01 -1.153165E+01 -4.583144E-01
        26  2.149135E+00  1.344571E+01  1.050651E+01
        27 -1.847451E+00 -4.229208E-01  1.760265E+01
        28 -6.756667E-05 -1.621812E+00  1.778068E+00
        29  1.848001E+00 -4.223621E-01  1.760312E+01
        30 -2.150212E+00  1.344578E+01  1.050785E+01
        31 -8.580576E-01 -1.153162E+01 -4.572352E-01
        32  4.629027E+00  1.711457E+01 -1.022060E+01
        44  2.019367E+00  5.187978E+01  1.433517E+00
        45 -7.124534E-05 -6.076650E-01  1.527095E-01
        46  5.444328E-05  1.541195E+00 -4.634450E-01
        47 -1.906977E-05 -1.166936E+00  5.403231E-01
        48  2.087020E-05 -1.166923E+00  5.403289E-01
        49 -4.874810E-05  1.541201E+00 -4.634470E-01
        50  5.307476E-05 -6.076883E-01  1.527053E-01
        51 -2.018248E+00  5.188054E+01  1.431962E+00
        74 -7.476324E+00  1.774409E+01 -9.824750E-01
        75  6.532583E-06 -6.085190E-01 -1.524318E-01
        76 -1.643058E-05  1.541809E+00  4.633653E-01
        77  4.016371E-05 -1.167061E+00 -5.402861E-01
        89  7.477634E+00  1.774320E+01 -9.839148E-01
        90 -3.472118E-05 -6.084824E-01 -1.524313E-01
        91  2.125100E-05  1.541802E+00  4.633664E-01
        92 -3.434612E-05 -1.167084E+00 -5.402855E-01
        98  7.759544E-04  3.792645E+01 -1.717038E+01
        99 -2.241151E-01 -7.597060E+00  6.505320E-01
       100  2.060925E-04 -2.287375E+01 -3.753930E-01
       101  2.250761E-01 -7.597039E+00  6.502705E-01
       102  7.866308E-04  3.525696E+01  1.648871E+01
       124  1.718328E+01  1.976921E+01 -6.119474E-01
       125  4.670275E-04  1.112537E+02  2.961696E+00
       126 -1.718487E+01  1.976882E+01 -6.134002E-01
       127  4.377421E-06 -1.215337E+00  3.053286E-01
       128  4.552363E-05 -2.615414E+00  9.359807E-01
       129 -1.974787E-06  3.082396E+00 -9.268596E-01
       130 -5.010573E-05 -2.615403E+00  9.359715E-01
       131  5.304347E-06 -2.333860E+00  1.080628E+00
       153  1.151453E+01 -1.327118E+02 -2.296946E+00
       154 -2.906057E+00  9.866811E+01  4.331281E-01
       155  4.088884E+00 -1.084278E+02  1.404697E+00
       156 -1.170219E-04 -1.216100E+00 -2.476401E-04
       157 -7.598622E-05 -2.615492E+00  7.018892E-01
       158  5.792082E-05  3.082987E+00  1.158375E-04
       159 -1.326235E-06 -2.616116E+00 -7.019189E-01
       160 -1.201229E-05 -2.334031E+00 -3.353234E-05
       182  8.181635E+00  6.515916E+01  4.086857E-01
       183  5.967107E-04  5.175429E+01 -1.381986E+00
       184 -8.183400E+00  6.515894E+01  4.100286E-01
       185  1.291777E-05 -6.743456E+00 -3.048051E-01
       186  2.524523E-05 -8.142589E+00 -9.357163E-01
       187 -4.779967E-06 -2.442660E+00  9.267420E-01
       188 -2.885263E-05 -8.142571E+00 -9.357125E-01
       189  3.970476E-06 -7.860535E+00 -1.080525E+00
       211 -4.087818E+00 -1.084275E+02  1.404264E+00
       212  2.909743E+00  9.866796E+01  4.294116E-01
       213 -1.151326E+01 -1.327120E+02 -2.297267E+00
       214  9.279680E-05 -1.216107E+00 -2.295681E-04
       215 -1.527870E-05 -2.616101E+00 -7.019211E-01
       216 -4.632638E-05  3.082986E+00  1.074926E-04
       217  6.229941E-05 -2.615506E+00  7.018915E-01
       218  5.904829E-06 -2.334028E+00 -4.628865E-05
       250 -1.330437E-03 -2.933382E+02 -5.840623E+00
       251  5.176425E+00  8.819971E+01  5.493482E-01
       252  1.263671E-03  2.054366E+02  1.271368E+00
       253 -5.180570E+00  8.819945E+01  5.438898E-01
       254 -1.491933E-03 -2.681985E+02  1.574434E+00
       255  3.288489E-05 -2.432278E+00 -6.065932E-04
       256  8.437037E-06 -5.230992E+00  1.403677E+00
       257  7.228464E-05 -5.231605E+00 -2.664096E-04
       258 -6.501556E-06  6.166025E+00  2.389576E-04
       259 -6.911522E-05 -5.231603E+00 -2.691242E-04
       260  1.688753E-05 -5.232344E+00 -1.403797E+00
       261 -5.012534E-06 -4.668108E+00 -9.332625E-05

 displacements (vx,vy,vz) for set NALL and time  0.1000000E-01

         5  0.000000E+00  0.000000E+00  0.000000E+00
         6  0.000000E+00  0.000000E+00  0.000000E+00
         7  0.000000E+00  0.000000E+00  0.000000E+00
         8  0.000000E+00  0.000000E+00  0.000000E+00
        21  0.000000E+00  0.000000E+00  0.000000E+00
        22  0.000000E+00  0.000000E+00  0.000000E+00
        23  0.000000E+00  0.000000E+00  0.000000E+00
        24  0.000000E+00  0.000000E+00  0.000000E+00
        25  0.000000E+00  0.000000E+00  0.000000E+00
        26  0.000000E+00  0.000000E+00  0.000000E+00
        27  0.000000E+00  0.000000E+00  0.000000E+00
        28  0.000000E+00  0.000000E+00  0.000000E+00
        29  0.000000E+00  0.000000E+00  0.000000E+00
        30  0.000000E+00  0.000000E+00  0.000000E+00
        31  0.000000E+00  0.000000E+00  0.000000E+00
        32  0.000000E+00  0.000000E+00  0.000000E+00
        44 -1.518539E-04  1.608146E-03 -2.339511E-04
        45 -3.545882E-05  1.248744E-03 -3.773006E-04
        46  4.199195E-05  9.147125E-04 -4.322694E-04
        47 -5.389505E-05  3.700246E-04 -2.840438E-04
        48  5.389663E-05  3.700258E-04 -2.840608E-04
        49 -4.200924E-05  9.146786E-04 -4.322693E-04
        50  3.549604E-05  1.248734E-03 -3.772933E-04
        51  1.520334E-04  1.607890E-03 -2.339777E-04
        74  1.500789E-04  1.612764E-03  2.341261E-04
        75  3.396678E-05  1.250951E-03  3.771332E-04
        76 -4.064956E-05  9.132252E-04  4.323497E-04
        77  5.438862E-05  3.692194E-04  2.841719E-04
        89 -1.502167E-04  1.612722E-03  2.341741E-04
        90 -3.395255E-05  1.251008E-03  3.771929E-04
        91  4.059331E-05  9.131665E-04  4.323611E-04
        92 -5.440241E-05  3.692133E-04  2.841761E-04
        98  0.000000E+00  0.000000E+00  0.000000E+00
        99  0.000000E+00  0.000000E+00  0.000000E+00
       100  0.000000E+00  0.000000E+00  0.000000E+00
       101  0.000000E+00  0.000000E+00  0.000000E+00
       102  0.000000E+00  0.000000E+00  0.000000E+00
       124  2.524424E-06  1.480078E-03 -2.204305E-04
       125  1.000826E-07  1.768669E-03 -2.313881E-04
       126 -2.370970E-06  1.480150E-03 -2.204259E-04
       127 -5.392061E-10  1.302050E-03 -4.175374E-04
       128 -3.043321E-06  9.590911E-04 -4.635743E-04
       129  1.153009E-08  8.890422E-04 -4.723614E-04
       130  3.054476E-06  9.591203E-04 -4.635734E-04
       131 -2.391787E-09  3.754058E-04 -2.760181E-04
       153  1.253065E-04  1.919758E-03 -1.037519E-04
       154  3.340349E-07  1.694655E-03 -6.970166E-08
       155 -1.251699E-04  1.917660E-03  1.040825E-04
       156  5.711599E-07  1.407038E-03  3.352959E-07
       157 -2.507762E-05  7.926359E-04 -1.860138E-04
       158 -5.503606E-07  8.097983E-04  1.785057E-07
       159  2.487000E-05  7.930009E-04  1.860893E-04
       160 -1.775390E-07  3.081376E-04 -5.105252E-09
       182  5.478533E-06  1.478073E-03  2.207455E-04
       183 -1.010322E-08  1.772457E-03  2.314616E-04
       184 -5.572821E-06  1.477986E-03  2.207183E-04
       185 -3.186378E-08  1.303203E-03  4.173035E-04
       186 -3.333132E-06  9.601920E-04  4.637418E-04
       187  7.681509E-09  8.895249E-04  4.724539E-04
       188  3.318384E-06  9.601759E-04  4.637606E-04
       189 -8.626266E-09  3.753370E-04  2.760498E-04
       211  1.250251E-04  1.917715E-03  1.042140E-04
       212 -3.711079E-07  1.694736E-03  3.507610E-09
       213 -1.252383E-04  1.919640E-03 -1.038629E-04
       214 -6.208248E-07  1.406952E-03  3.418501E-07
       215 -2.488173E-05  7.929832E-04  1.860843E-04
       216  5.636544E-07  8.098365E-04  1.801664E-07
       217  2.507631E-05  7.926445E-04 -1.859877E-04
       218  1.736835E-07  3.081257E-04  6.029117E-09
       250  9.990722E-09  1.907704E-03 -1.031240E-04
       251  1.437150E-06  1.209262E-03  4.512366E-10
       252 -9.467728E-08  1.543506E-03  5.670786E-08
       253 -1.530442E-06  1.209202E-03 -6.233828E-08
       254 -4.359577E-08  1.912249E-03  1.034117E-04
       255 -4.606418E-09  1.375592E-03  2.034169E-07
       256 -5.304919E-09  7.836305E-04 -2.073352E-04
       257 -8.607342E-08  9.141875E-04  7.364352E-08
       258 -1.856867E-08  8.121449E-04  8.205924E-08
       259  6.837409E-08  9.141728E-04  7.919765E-08
       260 -7.528294E-09  7.832563E-04  2.074779E-04
       261  4.208670E-09  3.483531E-04 -2.709874E-10

 forces (fx,fy,fz) for set NALL and time  0.1000000E-01

         5 -1.678217E+00  3.951117E-01  9.241281E-01
         6  1.678403E+00  3.948969E-01  9.245277E-01
         7 -1.672501E+00  3.574762E-01 -9.240446E-01
         8  1.672429E+00  3.577406E-01 -9.240037E-01
        21  1.056343E+00 -1.647607E+00  8.956035E+00
        22 -2.594394E-04  7.231475E-01  1.412254E+00
        23 -1.056166E+00 -1.647690E+00  8.956470E+00
        24  1.169607E+00 -5.918345E+00  4.717620E+00
        25 -8.720308E-03  2.446093E+00  4.142013E-03
        26 -1.161648E+00 -5.876627E+00 -4.720775E+00
        27  1.032630E+00 -1.618207E+00 -8.956193E+00
        28 -4.701606E-04  6.905021E-01 -1.418176E+00
        29 -1.032258E+00 -1.617244E+00 -8.955811E+00
        30  1.161746E+00 -5.876898E+00 -4.721263E+00
        31  8.769960E-03  2.445483E+00  4.164754E-03
        32 -1.169804E+00 -5.917600E+00  4.718256E+00
        44 -6.223696E+00 -1.518222E+01 -7.560437E-01
        45  6.101813E-05  5.205117E-01 -1.308078E-01
        46 -4.667875E-05 -1.320159E+00  3.969788E-01
        47  1.642732E-05  9.995776E-01 -4.628317E-01
        48 -1.796949E-05  9.995664E-01 -4.628367E-01
        49  4.180001E-05 -1.320164E+00  3.969805E-01
        50 -4.545309E-05  5.205317E-01 -1.308041E-01
        51  6.223891E+00 -1.518238E+01 -7.547352E-01
        74  6.170812E+00 -1.493925E+01  7.476046E-01
        75 -5.540563E-06  5.212432E-01  1.305698E-01
        76  1.408979E-05 -1.320685E+00 -3.969105E-01
        77 -3.450104E-05  9.996851E-01  4.628000E-01
        89 -6.170492E+00 -1.494023E+01  7.472228E-01
        90  2.968690E-05  5.212119E-01  1.305694E-01
        91 -1.821923E-05 -1.320679E+00 -3.969115E-01
        92  2.951783E-05  9.997044E-01  4.627995E-01
        98 -2.583840E-04 -1.286316E+01  8.223110E+00
        99 -1.357100E-02  3.935494E+00 -3.658431E-03
       100  8.528875E-04  5.275705E+00  2.706987E-03
       101  1.278155E-02  3.936440E+00 -3.455096E-03
       102  3.363715E-04 -1.286916E+01 -8.220541E+00
       124 -6.611170E+00 -1.697962E+01  4.682216E-01
       125  1.442358E-03 -3.094754E+01 -1.402673E+00
       126  6.610148E+00 -1.698086E+01  4.690054E-01
       127 -3.749216E-06  1.041029E+00 -2.615380E-01
       128 -3.905146E-05  2.240317E+00 -8.017447E-01
       129  1.691240E-06 -2.640323E+00  7.939317E-01
       130  4.297682E-05  2.240307E+00 -8.017369E-01
       131 -4.543578E-06  1.999145E+00 -9.256475E-01
       153  4.588041E+00  5.192332E+01  1.178950E+00
       154  6.108757E-02 -3.302928E+01 -9.303121E-03
       155 -4.642517E+00  5.163337E+01 -1.162971E+00
       156  1.001793E-04  1.041683E+00  2.120344E-04
       157  6.514545E-05  2.240384E+00 -6.012262E-01
       158 -4.961054E-05 -2.640830E+00 -9.916841E-05
       159  1.113775E-06  2.240918E+00  6.012515E-01
       160  1.032866E-05  1.999292E+00  2.872407E-05
       182 -6.419834E+00 -1.719864E+01 -4.591548E-01
       183  1.185948E-03 -3.075321E+01  1.384803E+00
       184  6.418716E+00 -1.720118E+01 -4.598439E-01
       185 -1.106472E-05  1.070275E+00  2.610895E-01
       186 -2.165608E-05  2.268754E+00  8.015182E-01
       187  4.094098E-06 -2.613701E+00 -7.938308E-01
       188  2.474653E-05  2.268738E+00  8.015149E-01
       189 -3.401001E-06  2.027154E+00  9.255592E-01
       211  4.642185E+00  5.163778E+01 -1.160844E+00
       212 -6.309014E-02 -3.302815E+01 -8.327112E-03
       213 -4.586603E+00  5.191967E+01  1.174826E+00
       214 -7.942760E-05  1.041689E+00  1.965540E-04
       215  1.311017E-05  2.240905E+00  6.012534E-01
       216  3.967825E-05 -2.640829E+00 -9.202002E-05
       217 -5.342114E-05  2.240396E+00 -6.012281E-01
       218 -5.096992E-06  1.999289E+00  3.965081E-05
       250  7.630003E-04  1.045973E+02  2.317982E+00
       251  1.045821E-01 -4.744688E+01 -1.384543E-03
       252 -3.670813E-03 -6.942948E+01 -1.228792E-02
       253 -1.011222E-01 -4.744925E+01 -3.472854E-03
       254 -7.003641E-04  1.046806E+02 -2.293073E+00
       255 -2.816781E-05  2.083432E+00  5.194440E-04
       256 -7.226630E-06  4.480774E+00 -1.202366E+00
       257 -6.194638E-05  4.481299E+00  2.281211E-04
       258  5.568444E-06 -5.281703E+00 -2.045736E-04
       259  5.923234E-05  4.481297E+00  2.304468E-04
       260 -1.446518E-05  4.481932E+00  1.202468E+00
       261  4.293755E-06  3.998623E+00  7.993643E-05

 displacements (vx,vy,vz) for set NALL and time  0.1500000E-01

         5  0.000000E+00  0.000000E+00  0.000000E+00
         6  0.000000E+00  0.000000E+00  0.000000E+00
         7  0.000000E+00  0.000000E+00  0.000000E+00
         8  0.000000E+00  0.000000E+00  0.000000E+00
        21  0.000000E+00  0.000000E+00  0.000000E+00
        22  0.000000E+00  0.000000E+00  0.000000E+00
        23  0.000000E+00  0.000000E+00  0.000000E+00
        24  0.000000E+00  0.000000E+00  0.000000E+00
        25  0.000000E+00  0.000000E+00  0.000000E+00
        26  0.000000E+00  0.000000E+00  0.000000E+00
        27  0.000000E+00  0.000000E+00  0.000000E+00
        28  0.000000E+00  0.000000E+00  0.000000E+00
        29  0.000000E+00  0.000000E+00  0.000000E+00
        30  0.000000E+00  0.000000E+00  0.000000E+00
        31  0.000000E+00  0.000000E+00  0.000000E+00
        32  0.000000E+00  0.000000E+00  0.000000E+00
        44  1.246105E-04 -1.272277E-03  1.853906E-04
        45  2.922178E-05 -9.892896E-04  2.988845E-04
        46 -3.364827E-05 -7.244151E-04  3.421156E-04
        47  4.235675E-05 -2.935432E-04  2.252346E-04
        48 -4.234531E-05 -2.935421E-04  2.252111E-04
        49  3.363607E-05 -7.244011E-04  3.420852E-04
        50 -2.911842E-05 -9.893290E-04  2.989272E-04
        51 -1.246448E-04 -1.272318E-03  1.854776E-04
        74 -1.218295E-04 -1.274786E-03 -1.855059E-04
        75 -2.758136E-05 -9.908234E-04 -2.989819E-04
        76  3.286238E-05 -7.236544E-04 -3.420662E-04
        77 -4.280552E-05 -2.931137E-04 -2.251942E-04
        89  1.218858E-04 -1.274717E-03 -1.854689E-04
        90  2.767223E-05 -9.908390E-04 -2.989523E-04
        91 -3.288450E-05 -7.236629E-04 -3.421380E-04
        92  4.280966E-05 -2.931188E-04 -2.252388E-04
        98  0.000000E+00  0.000000E+00  0.000000E+00
        99  0.000000E+00  0.000000E+00  0.000000E+00
       100  0.000000E+00  0.000000E+00  0.000000E+00
       101  0.000000E+00  0.000000E+00  0.000000E+00
       102  0.000000E+00  0.000000E+00  0.000000E+00
       124 -6.226778E-06 -1.173291E-03  1.748171E-04
       125  6.422806E-08 -1.401294E-03  1.833080E-04
       126  6.271195E-06 -1.173301E-03  1.748359E-04
       127  1.074420E-08 -1.031817E-03  3.307523E-04
       128  3.145926E-06 -7.596950E-04  3.673288E-04
       129  3.338339E-08 -7.048131E-04  3.746262E-04
       130 -3.116165E-06 -7.596972E-04  3.673259E-04
       131  6.505957E-10 -2.974446E-04  2.187036E-04
       153 -1.021953E-04 -1.519752E-03  8.240782E-05
       154  6.515666E-07 -1.349823E-03 -6.783150E-08
       155  1.011469E-04 -1.521155E-03 -8.237465E-05
       156  3.032454E-08 -1.115547E-03 -1.969616E-07
       157  2.067032E-05 -6.288758E-04  1.473658E-04
       158 -6.567630E-08 -6.417267E-04 -3.813252E-08
       159 -2.041323E-05 -6.284880E-04 -1.473359E-04
       160 -4.691340E-09 -2.436425E-04  3.620962E-09
       182 -4.682591E-06 -1.172484E-03 -1.747682E-04
       183  9.274656E-08 -1.402161E-03 -1.834543E-04
       184  4.791351E-06 -1.172481E-03 -1.748797E-04
       185 -7.355208E-09 -1.031593E-03 -3.304657E-04
       186  2.748302E-06 -7.599134E-04 -3.673602E-04
       187  2.719949E-08 -7.048846E-04 -3.745023E-04
       188 -2.728605E-06 -7.599125E-04 -3.673686E-04
       189 -2.545923E-09 -2.975165E-04 -2.186951E-04
       211 -1.011054E-04 -1.521124E-03 -8.250808E-05
       212 -5.851563E-07 -1.349873E-03  4.782306E-08
       213  1.021736E-04 -1.519818E-03  8.246573E-05
       214 -1.484007E-09 -1.115523E-03 -2.022246E-07
       215  2.042338E-05 -6.285072E-04 -1.473365E-04
       216  9.843322E-08 -6.417502E-04 -6.381969E-08
       217 -2.065294E-05 -6.288776E-04  1.473523E-04
       218  1.136368E-08 -2.436437E-04 -7.143448E-09
       250  3.739992E-08 -1.514115E-03  8.166838E-05
       251  2.872571E-07 -9.573238E-04  6.695877E-08
       252 -2.440509E-09 -1.222682E-03 -6.633982E-08
       253 -2.554126E-07 -9.572922E-04 -3.235352E-08
       254  5.329781E-08 -1.513567E-03 -8.187682E-05
       255  2.480901E-08 -1.091069E-03  6.792627E-09
       256  1.834369E-08 -6.200332E-04  1.644111E-04
       257 -7.736082E-08 -7.249489E-04 -1.644026E-08
       258  4.406799E-09 -6.426033E-04 -4.595505E-09
       259  9.667637E-08 -7.249393E-04  6.453367E-09
       260  1.426044E-08 -6.202775E-04 -1.644190E-04
       261  6.245765E-09 -2.759510E-04  2.440987E-09

 forces (fx,fy,fz) for set NALL and time  0.1500000E-01

         5  1.331131E+00 -2.832801E-01 -7.367355E-01
         6 -1.331112E+00 -2.833042E-01 -7.363721E-01
         7  1.323737E+00 -2.784733E-01  7.374207E-01
         8 -1.323735E+00 -2.785491E-01  7.364331E-01
        21 -8.154136E-01  1.285892E+00 -7.095790E+00
        22 -5.013280E-04 -5.505848E-01 -1.125081E+00
        23  8.157833E-01  1.286193E+00 -7.096273E+00
        24 -9.033234E-01  4.639360E+00 -3.731481E+00
        25 -1.117908E-02 -1.873787E+00 -1.303373E-03
        26  9.127460E-01  4.633984E+00  3.732136E+00
        27 -8.090962E-01  1.280874E+00  7.093405E+00
        28 -5.344755E-04 -5.348153E-01  1.129762E+00
        29  8.096248E-01  1.280810E+00  7.094059E+00
        30 -9.124054E-01  4.633763E+00  3.733440E+00
        31  1.072758E-02 -1.873518E+00 -1.921563E-03
        32  9.035541E-01  4.639323E+00 -3.730926E+00
        44  4.974691E+00  1.182017E+01  5.922176E-01
        45 -4.847995E-05 -4.139668E-01  1.040329E-01
        46  3.718603E-05  1.049945E+00 -3.157247E-01
        47 -1.323286E-05 -7.949846E-01  3.680996E-01
        48  1.445931E-05 -7.949757E-01  3.681035E-01
        49 -3.330538E-05  1.049949E+00 -3.157261E-01
        50  3.610015E-05 -4.139827E-01  1.040300E-01
        51 -4.974775E+00  1.182044E+01  5.931581E-01
        74 -4.917924E+00  1.178358E+01 -5.980513E-01
        75  4.293544E-06 -4.145486E-01 -1.038436E-01
        76 -1.122824E-05  1.050363E+00  3.156703E-01
        77  2.761421E-05 -7.950700E-01 -3.680743E-01
        89  4.918371E+00  1.178301E+01 -5.926991E-01
        90 -2.349832E-05 -4.145237E-01 -1.038432E-01
        91  1.451300E-05  1.050358E+00  3.156711E-01
        92 -2.365103E-05 -7.950854E-01 -3.680739E-01
        98 -1.064174E-04  1.019031E+01 -6.522570E+00
        99 -1.192052E-02 -3.138225E+00  7.428612E-04
       100  2.103983E-04 -4.150432E+00  1.224081E-03
       101  1.209247E-02 -3.138666E+00  4.971777E-04
       102 -3.313218E-04  1.017269E+01  6.519847E+00
       124  5.087589E+00  1.357040E+01 -3.631748E-01
       125  8.764314E-04  2.445417E+01  1.100690E+00
       126 -5.088249E+00  1.356989E+01 -3.621883E-01
       127  2.981238E-06 -8.279383E-01  2.080040E-01
       128  3.114786E-05 -1.781765E+00  6.376428E-01
       129 -1.344596E-06  2.099893E+00 -6.314287E-01
       130 -3.427036E-05 -1.781757E+00  6.376366E-01
       131  3.613547E-06 -1.589961E+00  7.361864E-01
       153 -3.841678E+00 -4.081792E+01 -9.230974E-01
       154  9.768573E-02  2.578962E+01 -5.642752E-03
       155  3.759517E+00 -4.078417E+01  9.306618E-01
       156 -7.959099E-05 -8.284581E-01 -1.685093E-04
       157 -5.190000E-05 -1.781818E+00  4.781668E-01
       158  3.945149E-05  2.100296E+00  7.879205E-05
       159 -8.460222E-07 -1.782243E+00 -4.781868E-01
       160 -8.269481E-06 -1.590078E+00 -2.284602E-05
       182  5.045539E+00  1.362176E+01  3.717805E-01
       183  8.682734E-04  2.430454E+01 -1.105766E+00
       184 -5.046505E+00  1.362137E+01  3.652226E-01
       185  8.799367E-06 -8.306246E-01 -2.076472E-01
       186  1.727756E-05 -1.783808E+00 -6.374626E-01
       187 -3.255602E-06  2.099294E+00  6.313483E-01
       188 -1.973609E-05 -1.783796E+00 -6.374600E-01
       189  2.704818E-06 -1.591664E+00 -7.361161E-01
       211 -3.760063E+00 -4.078222E+01  9.211682E-01
       212 -9.704967E-02  2.578948E+01  2.308744E-04
       213  3.840786E+00 -4.081981E+01 -9.240882E-01
       214  6.308546E-05 -8.284625E-01 -1.561968E-04
       215 -1.046725E-05 -1.782232E+00 -4.781883E-01
       216 -3.155109E-05  2.100296E+00  7.310634E-05
       217  4.257478E-05 -1.781827E+00  4.781683E-01
       218  4.108457E-06 -1.590076E+00 -3.153613E-05
       250  8.403131E-04 -8.292158E+01 -1.835745E+00
       251  1.056627E-01  3.776033E+01  8.205206E-03
       252 -2.862244E-04  5.483622E+01 -4.422672E-03
       253 -1.061071E-01  3.775997E+01  4.775496E-03
       254  2.714541E-04 -8.275273E+01  1.826254E+00
       255  2.240121E-05 -1.656969E+00 -4.129092E-04
       256  5.746904E-06 -3.563641E+00  9.562645E-01
       257  4.930731E-05 -3.564058E+00 -1.813161E-04
       258 -4.427684E-06  4.200627E+00  1.625426E-04
       259 -4.715001E-05 -3.564057E+00 -1.831662E-04
       260  1.150385E-05 -3.564562E+00 -9.563459E-01
       261 -3.415069E-06 -3.180187E+00 -6.356772E-05

 displacements (vx,vy,vz) for set NALL and time  0.2000000E-01

         5  0.000000E+00  0.000000E+00  0.000000E+00
         6  0.000000E+00  0.000000E+00  0.000000E+00
         7  0.000000E+00  0.000000E+00  0.000000E+00
         8  0.000000E+00  0.000000E+00  0.000000E+00
        21  0.000000E+00  0.000000E+00  0.000000E+00
        22  0.000000E+00  0.000000E+00  0.000000E+00
        23  0.000000E+00  0.000000E+00  0.000000E+00
        24  0.000000E+00  0.000000E+00  0.000000E+00
        25  0.000000E+00  0.000000E+00  0.000000E+00
        26  0.000000E+00  0.000000E+00  0.000000E+00
        27  0.000000E+00  0.000000E+00  0.000000E+00
        28  0.000000E+00  0.000000E+00  0.000000E+00
        29  0.000000E+00  0.000000E+00  0.000000E+00
        30  0.000000E+00  0.000000E+00  0.000000E+00
        31  0.000000E+00  0.000000E+00  0.000000E+00
        32  0.000000E+00  0.000000E+00  0.000000E+00
        44 -9.574611E-05  9.884050E-04 -1.440110E-04
        45 -2.236029E-05  7.681202E-04 -2.321653E-04
        46  2.602470E-05  5.624441E-04 -2.656324E-04
        47 -3.297053E-05  2.278200E-04 -1.748323E-04
        48  3.296901E-05  2.278184E-04 -1.748283E-04
        49 -2.602007E-05  5.624261E-04 -2.656260E-04
        50  2.232690E-05  7.681398E-04 -2.321753E-04
        51  9.575175E-05  9.883893E-04 -1.440231E-04
        74  9.351175E-05  9.906690E-04  1.440223E-04
        75  2.097817E-05  7.693945E-04  2.322201E-04
        76 -2.521148E-05  5.617241E-04  2.656621E-04
        77  3.335410E-05  2.274410E-04  1.748247E-04
        89 -9.364584E-05  9.905939E-04  1.440527E-04
        90 -2.100651E-05  7.694081E-04  2.322219E-04
        91  2.520232E-05  5.617182E-04  2.656960E-04
        92 -3.335480E-05  2.274415E-04  1.748430E-04
        98  0.000000E+00  0.000000E+00  0.000000E+00
        99  0.000000E+00  0.000000E+00  0.000000E+00
       100  0.000000E+00  0.000000E+00  0.000000E+00
       101  0.000000E+00  0.000000E+00  0.000000E+00
       102  0.000000E+00  0.000000E+00  0.000000E+00
       124  3.975867E-06  9.108332E-04 -1.357440E-04
       125 -1.886412E-08  1.087961E-03 -1.424450E-04
       126 -3.991197E-06  9.108525E-04 -1.357389E-04
       127 -6.286207E-09  8.011068E-04 -2.567842E-04
       128 -2.302007E-06  5.898121E-04 -2.851881E-04
       129 -1.009827E-08  5.470377E-04 -2.907972E-04
       130  2.293446E-06  5.898192E-04 -2.851895E-04
       131  8.376676E-10  2.308956E-04 -1.697869E-04
       153  7.889447E-05  1.180737E-03 -6.393579E-05
       154 -5.494476E-07  1.047429E-03 -3.470047E-08
       155 -7.806369E-05  1.181243E-03  6.394392E-05
       156  3.777927E-08  8.659415E-04  1.300568E-07
       157 -1.592958E-05  4.880610E-04 -1.144056E-04
       158 -1.270336E-08  4.982176E-04  5.117362E-08
       159  1.573055E-05  4.878643E-04  1.143935E-04
       160  1.082787E-09  1.891972E-04  8.770158E-09
       182  3.639821E-06  9.101345E-04  1.357683E-04
       183 -4.498671E-08  1.088718E-03  1.424740E-04
       184 -3.741586E-06  9.101020E-04  1.358046E-04
       185 -9.786683E-09  8.009740E-04  2.564562E-04
       186 -2.105115E-06  5.899999E-04  2.852216E-04
       187 -4.310674E-09  5.470665E-04  2.907068E-04
       188  2.094287E-06  5.899961E-04  2.852347E-04
       189 -1.225684E-10  2.309245E-04  1.697821E-04
       211  7.797795E-05  1.181212E-03  6.405933E-05
       212  5.064803E-07  1.047461E-03 -7.373568E-08
       213 -7.889003E-05  1.180756E-03 -6.397808E-05
       214 -5.542420E-08  8.659084E-04  1.379825E-07
       215 -1.574248E-05  4.878718E-04  1.143913E-04
       216  1.406910E-09  4.982357E-04  6.436747E-08
       217  1.592154E-05  4.880593E-04 -1.143951E-04
       218 -2.920781E-09  1.891948E-04  1.346869E-08
       250 -1.314240E-08  1.174816E-03 -6.349403E-05
       251  1.870966E-07  7.432939E-04 -7.498763E-08