    1C
    1UUSER                                                              
    1UDATE              17.july.2018                                    
    1UTIME              21:46:47                                        
    1UHOST                                                              
    1UPGM               CalculiX                                        
    1UVERSION           Version 2.13                             
    1UCOMPILETIME       jue jun 14 00:40:39 CEST 2018                    
    1UDIR                                                               
    1UDBN                                                               
    1UMAT    1EL                                                        
    2C                           201                                     1
 -1         1 0.00000E+00 0.00000E+00 0.00000E+00
 -1         2 1.00000E+00 0.00000E+00 0.00000E+00
 -1         3 1.00000E+00 1.00000E+00 0.00000E+00
 -1         4 0.00000E+00 1.00000E+00 0.00000E+00
 -1         9 2.50000E-01 0.00000E+00 0.00000E+00
 -1        10 5.00000E-01 0.00000E+00 0.00000E+00
 -1        11 7.50000E-01 0.00000E+00 0.00000E+00
 -1        12 1.00000E+00 2.50000E-01 0.00000E+00
 -1        13 1.00000E+00 5.00000E-01 0.00000E+00
 -1        14 1.00000E+00 7.50000E-01 0.00000E+00
 -1        15 7.50000E-01 1.00000E+00 0.00000E+00
 -1        16 5.00000E-01 1.00000E+00 0.00000E+00
 -1        17 2.50000E-01 1.00000E+00 0.00000E+00
 -1        18 0.00000E+00 7.50000E-01 0.00000E+00
 -1        19 0.00000E+00 5.00000E-01 0.00000E+00
 -1        20 0.00000E+00 2.50000E-01 0.00000E+00
 -1        33 1.00000E+00 0.00000E+00 5.00000E-01
 -1        34 1.00000E+00 0.00000E+00 1.00000E+00
 -1        35 1.00000E+00 0.00000E+00 1.50000E+00
 -1        36 1.00000E+00 0.00000E+00 2.00000E+00
 -1        37 1.00000E+00 0.00000E+00 2.50000E+00
 -1        38 1.00000E+00 0.00000E+00 3.00000E+00
 -1        39 1.00000E+00 0.00000E+00 3.50000E+00
 -1        40 1.00000E+00 0.00000E+00 4.00000E+00
 -1        41 1.00000E+00 0.00000E+00 4.50000E+00
 -1        42 1.00000E+00 0.00000E+00 5.00000E+00
 -1        43 1.00000E+00 0.00000E+00 5.50000E+00
 -1        44 1.00000E+00 0.00000E+00 6.00000E+00
 -1        51 0.00000E+00 0.00000E+00 6.00000E+00
 -1        52 0.00000E+00 0.00000E+00 5.50000E+00
 -1        53 0.00000E+00 0.00000E+00 5.00000E+00
 -1        54 0.00000E+00 0.00000E+00 4.50000E+00
 -1        55 0.00000E+00 0.00000E+00 4.00000E+00
 -1        56 0.00000E+00 0.00000E+00 3.50000E+00
 -1        57 0.00000E+00 0.00000E+00 3.00000E+00
 -1        58 0.00000E+00 0.00000E+00 2.50000E+00
 -1        59 0.00000E+00 0.00000E+00 2.00000E+00
 -1        60 0.00000E+00 0.00000E+00 1.50000E+00
 -1        61 0.00000E+00 0.00000E+00 1.00000E+00
 -1        62 0.00000E+00 0.00000E+00 5.00000E-01
 -1        63 1.00000E+00 1.00000E+00 5.00000E-01
 -1        64 1.00000E+00 1.00000E+00 1.00000E+00
 -1        65 1.00000E+00 1.00000E+00 1.50000E+00
 -1        66 1.00000E+00 1.00000E+00 2.00000E+00
 -1        67 1.00000E+00 1.00000E+00 2.50000E+00
 -1        68 1.00000E+00 1.00000E+00 3.00000E+00
 -1        69 1.00000E+00 1.00000E+00 3.50000E+00
 -1        70 1.00000E+00 1.00000E+00 4.00000E+00
 -1        71 1.00000E+00 1.00000E+00 4.50000E+00
 -1        72 1.00000E+00 1.00000E+00 5.00000E+00
 -1        73 1.00000E+00 1.00000E+00 5.50000E+00
 -1        74 1.00000E+00 1.00000E+00 6.00000E+00
 -1        78 0.00000E+00 1.00000E+00 5.00000E-01
 -1        79 0.00000E+00 1.00000E+00 1.00000E+00
 -1        80 0.00000E+00 1.00000E+00 1.50000E+00
 -1        81 0.00000E+00 1.00000E+00 2.00000E+00
 -1        82 0.00000E+00 1.00000E+00 2.50000E+00
 -1        83 0.00000E+00 1.00000E+00 3.00000E+00
 -1        84 0.00000E+00 1.00000E+00 3.50000E+00
 -1        85 0.00000E+00 1.00000E+00 4.00000E+00
 -1        86 0.00000E+00 1.00000E+00 4.50000E+00
 -1        87 0.00000E+00 1.00000E+00 5.00000E+00
 -1        88 0.00000E+00 1.00000E+00 5.50000E+00
 -1        89 0.00000E+00 1.00000E+00 6.00000E+00
 -1        93 5.00000E-01 2.50000E-01 0.00000E+00
 -1        94 2.50000E-01 5.00000E-01 0.00000E+00
 -1        95 5.00000E-01 5.00000E-01 0.00000E+00
 -1        96 7.50000E-01 5.00000E-01 0.00000E+00
 -1        97 5.00000E-01 7.50000E-01 0.00000E+00
 -1       103 5.00000E-01 0.00000E+00 5.00000E-01
 -1       104 2.50000E-01 0.00000E+00 1.00000E+00
 -1       105 5.00000E-01 0.00000E+00 1.00000E+00
 -1       106 7.50000E-01 0.00000E+00 1.00000E+00
 -1       107 5.00000E-01 0.00000E+00 1.50000E+00
 -1       108 2.50000E-01 0.00000E+00 2.00000E+00
 -1       109 5.00000E-01 0.00000E+00 2.00000E+00
 -1       110 7.50000E-01 0.00000E+00 2.00000E+00
 -1       111 5.00000E-01 0.00000E+00 2.50000E+00
 -1       112 2.50000E-01 0.00000E+00 3.00000E+00
 -1       113 5.00000E-01 0.00000E+00 3.00000E+00
 -1       114 7.50000E-01 0.00000E+00 3.00000E+00
 -1       115 5.00000E-01 0.00000E+00 3.50000E+00
 -1       116 2.50000E-01 0.00000E+00 4.00000E+00
 -1       117 5.00000E-01 0.00000E+00 4.00000E+00
 -1       118 7.50000E-01 0.00000E+00 4.00000E+00
 -1       119 5.00000E-01 0.00000E+00 4.50000E+00
 -1       120 2.50000E-01 0.00000E+00 5.00000E+00
 -1       121 5.00000E-01 0.00000E+00 5.00000E+00
 -1       122 7.50000E-01 0.00000E+00 5.00000E+00
 -1       123 5.00000E-01 0.00000E+00 5.50000E+00
 -1       124 2.50000E-01 0.00000E+00 6.00000E+00
 -1       125 5.00000E-01 0.00000E+00 6.00000E+00
 -1       126 7.50000E-01 0.00000E+00 6.00000E+00
 -1       132 1.00000E+00 5.00000E-01 5.00000E-01
 -1       133 1.00000E+00 2.50000E-01 1.00000E+00
 -1       134 1.00000E+00 5.00000E-01 1.00000E+00
 -1       135 1.00000E+00 7.50000E-01 1.00000E+00
 -1       136 1.00000E+00 5.00000E-01 1.50000E+00
 -1       137 1.00000E+00 2.50000E-01 2.00000E+00
 -1       138 1.00000E+00 5.00000E-01 2.00000E+00
 -1       139 1.00000E+00 7.50000E-01 2.00000E+00
 -1       140 1.00000E+00 5.00000E-01 2.50000E+00
 -1       141 1.00000E+00 2.50000E-01 3.00000E+00
 -1       142 1.00000E+00 5.00000E-01 3.00000E+00
 -1       143 1.00000E+00 7.50000E-01 3.00000E+00
 -1       144 1.00000E+00 5.00000E-01 3.50000E+00
 -1       145 1.00000E+00 2.50000E-01 4.00000E+00
 -1       146 1.00000E+00 5.00000E-01 4.00000E+00
 -1       147 1.00000E+00 7.50000E-01 4.00000E+00
 -1       148 1.00000E+00 5.00000E-01 4.50000E+00
 -1       149 1.00000E+00 2.50000E-01 5.00000E+00
 -1       150 1.00000E+00 5.00000E-01 5.00000E+00
 -1       151 1.00000E+00 7.50000E-01 5.00000E+00
 -1       152 1.00000E+00 5.00000E-01 5.50000E+00
 -1       153 1.00000E+00 2.50000E-01 6.00000E+00
 -1       154 1.00000E+00 5.00000E-01 6.00000E+00
 -1       155 1.00000E+00 7.50000E-01 6.00000E+00
 -1       161 5.00000E-01 1.00000E+00 5.00000E-01
 -1       162 7.50000E-01 1.00000E+00 1.00000E+00
 -1       163 5.00000E-01 1.00000E+00 1.00000E+00
 -1       164 2.50000E-01 1.00000E+00 1.00000E+00
 -1       165 5.00000E-01 1.00000E+00 1.50000E+00
 -1       166 7.50000E-01 1.00000E+00 2.00000E+00
 -1       167 5.00000E-01 1.00000E+00 2.00000E+00
 -1       168 2.50000E-01 1.00000E+00 2.00000E+00
 -1       169 5.00000E-01 1.00000E+00 2.50000E+00
 -1       170 7.50000E-01 1.00000E+00 3.00000E+00
 -1       171 5.00000E-01 1.00000E+00 3.00000E+00
 -1       172 2.50000E-01 1.00000E+00 3.00000E+00
 -1       173 5.00000E-01 1.00000E+00 3.50000E+00
 -1       174 7.50000E-01 1.00000E+00 4.00000E+00
 -1       175 5.00000E-01 1.00000E+00 4.00000E+00
 -1       176 2.50000E-01 1.00000E+00 4.00000E+00
 -1       177 5.00000E-01 1.00000E+00 4.50000E+00
 -1       178 7.50000E-01 1.00000E+00 5.00000E+00
 -1       179 5.00000E-01 1.00000E+00 5.00000E+00
 -1       180 2.50000E-01 1.00000E+00 5.00000E+00
 -1       181 5.00000E-01 1.00000E+00 5.50000E+00
 -1       182 7.50000E-01 1.00000E+00 6.00000E+00
 -1       183 5.00000E-01 1.00000E+00 6.00000E+00
 -1       184 2.50000E-01 1.00000E+00 6.00000E+00
 -1       190 0.00000E+00 5.00000E-01 5.00000E-01
 -1       191 0.00000E+00 7.50000E-01 1.00000E+00
 -1       192 0.00000E+00 5.00000E-01 1.00000E+00
 -1       193 0.00000E+00 2.50000E-01 1.00000E+00
 -1       194 0.00000E+00 5.00000E-01 1.50000E+00
 -1       195 0.00000E+00 7.50000E-01 2.00000E+00
 -1       196 0.00000E+00 5.00000E-01 2.00000E+00
 -1       197 0.00000E+00 2.50000E-01 2.00000E+00
 -1       198 0.00000E+00 5.00000E-01 2.50000E+00
 -1       199 0.00000E+00 7.50000E-01 3.00000E+00
 -1       200 0.00000E+00 5.00000E-01 3.00000E+00
 -1       201 0.00000E+00 2.50000E-01 3.00000E+00
 -1       202 0.00000E+00 5.00000E-01 3.50000E+00
 -1       203 0.00000E+00 7.50000E-01 4.00000E+00
 -1       204 0.00000E+00 5.00000E-01 4.00000E+00
 -1       205 0.00000E+00 2.50000E-01 4.00000E+00
 -1       206 0.00000E+00 5.00000E-01 4.50000E+00
 -1       207 0.00000E+00 7.50000E-01 5.00000E+00
 -1       208 0.00000E+00 5.00000E-01 5.00000E+00
 -1       209 0.00000E+00 2.50000E-01 5.00000E+00
 -1       210 0.00000E+00 5.00000E-01 5.50000E+00
 -1       211 0.00000E+00 7.50000E-01 6.00000E+00
 -1       212 0.00000E+00 5.00000E-01 6.00000E+00
 -1       213 0.00000E+00 2.50000E-01 6.00000E+00
 -1       219 5.00000E-01 5.00000E-01 5.00000E-01
 -1       220 5.00000E-01 2.50000E-01 1.00000E+00
 -1       221 2.50000E-01 5.00000E-01 1.00000E+00
 -1       222 5.00000E-01 5.00000E-01 1.00000E+00
 -1       223 7.50000E-01 5.00000E-01 1.00000E+00
 -1       224 5.00000E-01 7.50000E-01 1.00000E+00
 -1       225 5.00000E-01 5.00000E-01 1.50000E+00
 -1       226 5.00000E-01 2.50000E-01 2.00000E+00
 -1       227 2.50000E-01 5.00000E-01 2.00000E+00
 -1       228 5.00000E-01 5.00000E-01 2.00000E+00
 -1       229 7.50000E-01 5.00000E-01 2.00000E+00
 -1       230 5.00000E-01 7.50000E-01 2.00000E+00
 -1       231 5.00000E-01 5.00000E-01 2.50000E+00
 -1       232 5.00000E-01 2.50000E-01 3.00000E+00
 -1       233 2.50000E-01 5.00000E-01 3.00000E+00
 -1       234 5.00000E-01 5.00000E-01 3.00000E+00
 -1       235 7.50000E-01 5.00000E-01 3.00000E+00
 -1       236 5.00000E-01 7.50000E-01 3.00000E+00
 -1       237 5.00000E-01 5.00000E-01 3.50000E+00
 -1       238 5.00000E-01 2.50000E-01 4.00000E+00
 -1       239 2.50000E-01 5.00000E-01 4.00000E+00
 -1       240 5.00000E-01 5.00000E-01 4.00000E+00
 -1       241 7.50000E-01 5.00000E-01 4.00000E+00
 -1       242 5.00000E-01 7.50000E-01 4.00000E+00
 -1       243 5.00000E-01 5.00000E-01 4.50000E+00
 -1       244 5.00000E-01 2.50000E-01 5.00000E+00
 -1       245 2.50000E-01 5.00000E-01 5.00000E+00
 -1       246 5.00000E-01 5.00000E-01 5.00000E+00
 -1       247 7.50000E-01 5.00000E-01 5.00000E+00
 -1       248 5.00000E-01 7.50000E-01 5.00000E+00
 -1       249 5.00000E-01 5.00000E-01 5.50000E+00
 -1       250 5.00000E-01 2.50000E-01 6.00000E+00
 -1       251 2.50000E-01 5.00000E-01 6.00000E+00
 -1       252 5.00000E-01 5.00000E-01 6.00000E+00
 -1       253 7.50000E-01 5.00000E-01 6.00000E+00
 -1       254 5.00000E-01 7.50000E-01 6.00000E+00
 -3
    3C                            24                                     1
 -1         1    4    0    1
 -2         1        10        95        19        61       105       222       192         9        93
 -2        94        20        62       103       219       190       104       220       221       193
 -1         2    4    0    1
 -2        10         2        13        95       105        34       134       222        11        12
 -2        96        93       103        33       132       219       106       133       223       220
 -1         3    4    0    1
 -2        19        95        16         4       192       222       163        79        94        97
 -2        17        18       190       219       161        78       221       224       164       191
 -1         4    4    0    1
 -2        95        13         3        16       222       134        64       163        96        14
 -2        15        97       219       132        63       161       223       135       162       224
 -1         5    4    0    1
 -2        61       105       222       192        59       109       228       196       104       220
 -2       221       193        60       107       225       194       108       226       227       197
 -1         6    4    0    1
 -2       105        34       134       222       109        36       138       228       106       133
 -2       223       220       107        35       136       225       110       137       229       226
 -1         7    4    0    1
 -2       192       222       163        79       196       228       167        81       221       224
 -2       164       191       194       225       165        80       227       230       168       195
 -1         8    4    0    1
 -2       222       134        64       163       228       138        66       167       223       135
 -2       162       224       225       136        65       165       229       139       166       230
 -1         9    4    0    1
 -2        59       109       228       196        57       113       234       200       108       226
 -2       227       197        58       111       231       198       112       232       233       201
 -1        10    4    0    1
 -2       109        36       138       228       113        38       142       234       110       137
 -2       229       226       111        37       140       231       114       141       235       232
 -1        11    4    0    1
 -2       196       228       167        81       200       234       171        83       227       230
 -2       168       195       198       231       169        82       233       236       172       199
 -1        12    4    0    1
 -2       228       138        66       167       234       142        68       171       229       139
 -2       166       230       231       140        67       169       235       143       170       236
 -1        13    4    0    1
 -2        57       113       234       200        55       117       240       204       112       232
 -2       233       201        56       115       237       202       116       238       239       205
 -1        14    4    0    1
 -2       113        38       142       234       117        40       146       240       114       141
 -2       235       232       115        39       144       237       118       145       241       238
 -1        15    4    0    1
 -2       200       234       171        83       204       240       175        85       233       236
 -2       172       199       202       237       173        84       239       242       176       203
 -1        16    4    0    1
 -2       234       142        68       171       240       146        70       175       235       143
 -2       170       236       237       144        69       173       241       147       174       242
 -1        17    4    0    1
 -2        55       117       240       204        53       121       246       208       116       238
 -2       239       205        54       119       243       206       120       244       245       209
 -1        18    4    0    1
 -2       117        40       146       240       121        42       150       246       118       145
 -2       241       238       119        41       148       243       122       149       247       244
 -1        19    4    0    1
 -2       204       240       175        85       208       246       179        87       239       242
 -2       176       203       206       243       177        86       245       248       180       207
 -1        20    4    0    1
 -2       240       146        70       175       246       150        72       179       241       147
 -2       174       242       243       148        71       177       247       151       178       248
 -1        21    4    0    1
 -2        53       121       246       208        51       125       252       212       120       244
 -2       245       209        52       123       249       210       124       250       251       213
 -1        22    4    0    1
 -2       121        42       150       246       125        44       154       252       122       149
 -2       247       244       123        43       152       249       126       153       253       250
 -1        23    4    0    1
 -2       208       246       179        87       212       252       183        89       245       248
 -2       180       207       210       249       181        88       251       254       184       211
 -1        24    4    0    1
 -2       246       150        72       179       252       154        74       183       247       151
 -2       178       248       249       152        73       181       253       155       182       254
 -3
    1PSTEP                         1           1           1          
  100CL  101 5.00000E-03         201                     1    1           1
 -4  DISP        4    1
 -5  D1          1    2    1    0
 -5  D2          1    2    2    0
 -5  D3          1    2    3    0
 -5  ALL         1    2    0    0    1ALL
 -1         1 0.00000E+00 0.00000E+00 0.00000E+00
 -1         2 0.00000E+00 0.00000E+00 0.00000E+00
 -1         3 0.00000E+00 0.00000E+00 0.00000E+00
 -1         4 0.00000E+00 0.00000E+00 0.00000E+00
 -1         9 0.00000E+00 0.00000E+00 0.00000E+00
 -1        10 0.00000E+00 0.00000E+00 0.00000E+00
 -1        11 0.00000E+00 0.00000E+00 0.00000E+00
 -1        12 0.00000E+00 0.00000E+00 0.00000E+00
 -1        13 0.00000E+00 0.00000E+00 0.00000E+00
 -1        14 0.00000E+00 0.00000E+00 0.00000E+00
 -1        15 0.00000E+00 0.00000E+00 0.00000E+00
 -1        16 0.00000E+00 0.00000E+00 0.00000E+00
 -1        17 0.00000E+00 0.00000E+00 0.00000E+00
 -1        18 0.00000E+00 0.00000E+00 0.00000E+00
 -1        19 0.00000E+00 0.00000E+00 0.00000E+00
 -1        20 0.00000E+00 0.00000E+00 0.00000E+00
 -1        33 6.38346E-05-1.55657E-04-2.04514E-04
 -1        34 3.13462E-05-4.81926E-04-3.74400E-04
 -1        35 2.57934E-05-9.70906E-04-4.83966E-04
 -1        36 8.19161E-06-1.52854E-03-5.41001E-04
 -1        37-5.11674E-06-2.11219E-03-5.47825E-04
 -1        38-2.10589E-05-2.69505E-03-5.19145E-04
 -1        39-4.24666E-05-3.19612E-03-3.84813E-04
 -1        40-4.30411E-05-3.54400E-03-2.09573E-04
 -1        41-4.42879E-05-3.58177E-03-6.38033E-05
 -1        42-6.13267E-05-3.74116E-03-1.48032E-04
 -1        43 6.22413E-05-3.47329E-03 8.54572E-05
 -1        44-5.96766E-05-3.46555E-03 4.48469E-04
 -1        51 5.98485E-05-3.46562E-03 4.48416E-04
 -1        52-6.20503E-05-3.47340E-03 8.54192E-05
 -1        53 6.15715E-05-3.74126E-03-1.48038E-04
 -1        54 4.44837E-05-3.58186E-03-6.38053E-05
 -1        55 4.32393E-05-3.54408E-03-2.09567E-04
 -1        56 4.26364E-05-3.19619E-03-3.84803E-04
 -1        57 2.12092E-05-2.69511E-03-5.19129E-04
 -1        58 5.23379E-06-2.11224E-03-5.47807E-04
 -1        59-8.10163E-06-1.52858E-03-5.40983E-04
 -1        60-2.57328E-05-9.70934E-04-4.83950E-04
 -1        61-3.13113E-05-4.81944E-04-3.74388E-04
 -1        62-6.38209E-05-1.55664E-04-2.04507E-04
 -1        63-6.26593E-05-1.53929E-04 2.01091E-04
 -1        64-3.11728E-05-4.81371E-04 3.67053E-04
 -1        65-2.34221E-05-9.70442E-04 4.73686E-04
 -1        66-7.92879E-06-1.53504E-03 5.27327E-04
 -1        67 5.02383E-06-2.10245E-03 5.30967E-04
 -1        68 1.46166E-05-2.69561E-03 4.94037E-04
 -1        69 5.86600E-05-3.20674E-03 3.58268E-04
 -1        70 6.59559E-05-3.63527E-03 1.84603E-04
 -1        71-5.32660E-06-3.45972E-03 3.34563E-05
 -1        72-1.04373E-04-3.47870E-03 7.90202E-05
 -1        73 2.02409E-04-3.88813E-03-1.68645E-04
 -1        74 3.17735E-04-4.41107E-03-4.94715E-04
 -1        78 6.26560E-05-1.53940E-04 2.01098E-04
 -1        79 3.11703E-05-4.81390E-04 3.67065E-04
 -1        80 2.34262E-05-9.70471E-04 4.73702E-04
 -1        81 7.94095E-06-1.53508E-03 5.27345E-04
 -1        82-5.00093E-06-2.10250E-03 5.30985E-04
 -1        83-1.45874E-05-2.69566E-03 4.94052E-04
 -1        84-5.86236E-05-3.20681E-03 3.58279E-04
 -1        85-6.59214E-05-3.63535E-03 1.84607E-04
 -1        86 5.36177E-06-3.45980E-03 3.34575E-05
 -1        87 1.04382E-04-3.47881E-03 7.90115E-05
 -1        88-2.02416E-04-3.88824E-03-1.68674E-04
 -1        89-3.17775E-04-4.41119E-03-4.94769E-04
 -1        93 0.00000E+00 0.00000E+00 0.00000E+00
 -1        94 0.00000E+00 0.00000E+00 0.00000E+00
 -1        95 0.00000E+00 0.00000E+00 0.00000E+00
 -1        96 0.00000E+00 0.00000E+00 0.00000E+00
 -1        97 0.00000E+00 0.00000E+00 0.00000E+00
 -1       103 6.51273E-09-1.81941E-04-2.00718E-04
 -1       104-1.56060E-05-5.01369E-04-3.80307E-04
 -1       105 1.70341E-08-5.03893E-04-3.82952E-04
 -1       106 1.56402E-05-5.01360E-04-3.80311E-04
 -1       107 3.02237E-08-9.81012E-04-4.86679E-04
 -1       108-3.25432E-06-1.53078E-03-5.44697E-04
 -1       109 4.39047E-08-1.54141E-03-5.43627E-04
 -1       110 3.34315E-06-1.53076E-03-5.44704E-04
 -1       111 5.95558E-08-2.10336E-03-5.51609E-04
 -1       112 7.58990E-06-2.71917E-03-5.21297E-04
 -1       113 7.20362E-08-2.71241E-03-5.22903E-04
 -1       114-7.44244E-06-2.71914E-03-5.21302E-04
 -1       115 8.71999E-08-3.15789E-03-3.93299E-04
 -1       116 3.31432E-05-3.52059E-03-2.03973E-04
 -1       117 9.11758E-08-3.64296E-03-1.83089E-04
 -1       118-3.29532E-05-3.52055E-03-2.03978E-04
 -1       119 1.06652E-07-3.55516E-03-6.57409E-05
 -1       120-6.87980E-06-3.91175E-03-1.12681E-04
 -1       121 9.73136E-08-3.76578E-03-1.17684E-04
 -1       122 7.10097E-06-3.91170E-03-1.12662E-04
 -1       123 1.07710E-07-3.48393E-03-2.51586E-05
 -1       124 1.49177E-04-2.96648E-03 4.29688E-04
 -1       125 2.74978E-08-3.58902E-03 4.48712E-04
 -1       126-1.49064E-04-2.96643E-03 4.29663E-04
 -1       132 7.17379E-07-1.18679E-04-1.59357E-06
 -1       133 1.61454E-05-4.69666E-04-1.78009E-04
 -1       134 8.96709E-07-4.74382E-04-2.86358E-06
 -1       135-1.53944E-05-4.69775E-04 1.71217E-04
 -1       136-1.50143E-07-9.53370E-04-5.55411E-06
 -1       137 4.83872E-06-1.52664E-03-2.68602E-04
 -1       138 5.40380E-07-1.51885E-03-7.31827E-06
 -1       139-3.65101E-06-1.52834E-03 2.55230E-04
 -1       140 1.72742E-06-2.12630E-03-9.14237E-06
 -1       141-1.03975E-05-2.68053E-03-2.44300E-04
 -1       142 5.58012E-06-2.68707E-03-5.06377E-06
 -1       143 1.13287E-05-2.68674E-03 2.24247E-04
 -1       144-8.84210E-06-3.22019E-03-1.26214E-05
 -1       145-2.02425E-05-3.56303E-03-1.31941E-04
 -1       146-1.29047E-05-3.46611E-03-2.46833E-05
 -1       147 1.82133E-05-3.58717E-03 1.00808E-04
 -1       148 2.70919E-05-3.68202E-03-2.36550E-05
 -1       149-3.25789E-05-3.42254E-03-4.68024E-05
 -1       150 8.53715E-05-3.44973E-03-1.98470E-06
 -1       151 2.83267E-05-3.35505E-03-4.23162E-08
 -1       152-1.26901E-04-3.72170E-03 1.18692E-05
 -1       153 6.98630E-05-3.63669E-03 1.91270E-04
 -1       154-1.20154E-04-2.50408E-03-2.07876E-05
 -1       155-6.48539E-05-3.88886E-03-2.37996E-04
 -1       161-2.50516E-09-1.80742E-04 1.97009E-04
 -1       162-1.53733E-05-5.00722E-04 3.73603E-04
 -1       163-1.16841E-09-5.01443E-04 3.75781E-04
 -1       164 1.53706E-05-5.00732E-04 3.73611E-04
 -1       165 1.65938E-09-9.81078E-04 4.76681E-04
 -1       166-3.94538E-06-1.52812E-03 5.30676E-04
 -1       167 6.63010E-09-1.53736E-03 5.32912E-04
 -1       168 3.95810E-06-1.52814E-03 5.30686E-04
 -1       169 1.10742E-08-2.10424E-03 5.30967E-04
 -1       170 7.54393E-06-2.71905E-03 5.01377E-04
 -1       171 1.61308E-08-2.68107E-03 4.96976E-04
 -1       172-7.51315E-06-2.71908E-03 5.01386E-04
 -1       173 1.79376E-08-3.17854E-03 3.69066E-04
 -1       174 3.14476E-05-3.46220E-03 1.71138E-04
 -1       175 2.07357E-08-3.56217E-03 1.72768E-04
 -1       176-3.14091E-05-3.46224E-03 1.71139E-04
 -1       177 1.51198E-08-3.51220E-03 2.08280E-05
 -1       178-4.45894E-05-4.00871E-03 7.14896E-05
 -1       179 1.28363E-08-3.57961E-03 4.81310E-05
 -1       180 4.46062E-05-4.00876E-03 7.14919E-05
 -1       181-4.27045E-09-3.68409E-03-6.07062E-05
 -1       182 1.14091E-04-2.56295E-03-4.71109E-04
 -1       183 4.78214E-09-4.35442E-03-4.76592E-04
 -1       184-1.14104E-04-2.56301E-03-4.71155E-04
 -1       190-7.11339E-07-1.18688E-04-1.58697E-06
 -1       191 1.54019E-05-4.69794E-04 1.71227E-04
 -1       192-8.79601E-07-4.74400E-04-2.85089E-06
 -1       193-1.61191E-05-4.69684E-04-1.77995E-04
 -1       194 1.82647E-07-9.53398E-04-5.53829E-06
 -1       195 3.68303E-06-1.52838E-03 2.55247E-04
 -1       196-4.88382E-07-1.51889E-03-7.30039E-06
 -1       197-4.76763E-06-1.52668E-03-2.68582E-04
 -1       198-1.65826E-06-2.12635E-03-9.12484E-06
 -1       199-1.12685E-05-2.68680E-03 2.24261E-04
 -1       200-5.48912E-06-2.68713E-03-5.04701E-06
 -1       201 1.05177E-05-2.68059E-03-2.44281E-04
 -1       202 8.94363E-06-3.22026E-03-1.26114E-05
 -1       203-1.81370E-05-3.58725E-03 1.00815E-04
 -1       204 1.30251E-05-3.46618E-03-2.46780E-05
 -1       205 2.04029E-05-3.56311E-03-1.31936E-04
 -1       206-2.69827E-05-3.68211E-03-2.36546E-05
 -1       207-2.82525E-05-3.35516E-03-6.03133E-08
 -1       208-8.52366E-05-3.44983E-03-1.98111E-06
 -1       209 3.27633E-05-3.42264E-03-4.67925E-05
 -1       210 1.26990E-04-3.72180E-03 1.18251E-05
 -1       211 6.48790E-05-3.88896E-03-2.37999E-04
 -1       212 1.20263E-04-2.50418E-03-2.08524E-05
 -1       213-6.97058E-05-3.63678E-03 1.91171E-04
 -1       219 2.45185E-09-1.44465E-04-1.42013E-06
 -1       220 1.26921E-08-4.89502E-04-1.83653E-04
 -1       221-4.05700E-07-4.91036E-04-3.61295E-06
 -1       222 8.10663E-09-4.92434E-04-3.78123E-06
 -1       223 4.22115E-07-4.91027E-04-3.61897E-06
 -1       224 3.59421E-09-4.88130E-04 1.76730E-04
 -1       225 1.62344E-08-9.65549E-04-5.09769E-06
 -1       226 3.44458E-08-1.53419E-03-2.72893E-04
 -1       227-3.40337E-07-1.52010E-03-6.82463E-06
 -1       228 2.49606E-08-1.52195E-03-8.41100E-06
 -1       229 3.91222E-07-1.52008E-03-6.83346E-06
 -1       230 1.57838E-08-1.53255E-03 2.57770E-04
 -1       231 3.55007E-08-2.12491E-03-7.43136E-06
 -1       232 5.73825E-08-2.68854E-03-2.49324E-04
 -1       233-2.17531E-06-2.68434E-03-1.26404E-05
 -1       234 4.29244E-08-2.68144E-03-1.39384E-05
 -1       235 2.26407E-06-2.68431E-03-1.26479E-05
 -1       236 2.95374E-08-2.67135E-03 2.27195E-04
 -1       237 5.28133E-08-3.19259E-03-9.25432E-06
 -1       238 7.22363E-08-3.61183E-03-1.24033E-04
 -1       239 5.80591E-06-3.45393E-03-1.43268E-05
 -1       240 5.32613E-08-3.47784E-03-1.99783E-05
 -1       241-5.69286E-06-3.45389E-03-1.43316E-05
 -1       242 3.66335E-08-3.57444E-03 8.84781E-05
 -1       243 6.20008E-08-3.65636E-03-2.12248E-05
 -1       244 7.21551E-08-3.52125E-03-2.03965E-05
 -1       245-3.37154E-05-3.61223E-03-2.61060E-05
 -1       246 4.87521E-08-3.65220E-03-1.97803E-05
 -1       247 3.38338E-05-3.61218E-03-2.60968E-05
 -1       248 3.16231E-08-3.43724E-03-9.94352E-06
 -1       249 5.44192E-08-3.52310E-03-1.29403E-05
 -1       250 1.85698E-08-4.08122E-03 1.74808E-04
 -1       251 3.01714E-05-2.57226E-03-1.02433E-05
 -1       252 5.36926E-09-3.12312E-03-1.46242E-05
 -1       253-3.01149E-05-2.57222E-03-1.02516E-05
 -1       254 9.22723E-10-4.41213E-03-2.54071E-04
 -3
    1PSTEP                         2           2           1          
  100CL  102 1.00000E-02         201                     1    2           1
 -4  DISP        4    1
 -5  D1          1    2    1    0
 -5  D2          1    2    2    0
 -5  D3          1    2    3    0
 -5  ALL         1    2    0    0    1ALL
 -1         1 0.00000E+00 0.00000E+00 0.00000E+00
 -1         2 0.00000E+00 0.00000E+00 0.00000E+00
 -1         3 0.00000E+00 0.00000E+00 0.00000E+00
 -1         4 0.00000E+00 0.00000E+00 0.00000E+00
 -1         9 0.00000E+00 0.00000E+00 0.00000E+00
 -1        10 0.00000E+00 0.00000E+00 0.00000E+00
 -1        11 0.00000E+00 0.00000E+00 0.00000E+00
 -1        12 0.00000E+00 0.00000E+00 0.00000E+00
 -1        13 0.00000E+00 0.00000E+00 0.00000E+00
 -1        14 0.00000E+00 0.00000E+00 0.00000E+00
 -1        15 0.00000E+00 0.00000E+00 0.00000E+00
 -1        16 0.00000E+00 0.00000E+00 0.00000E+00
 -1        17 0.00000E+00 0.00000E+00 0.00000E+00
 -1        18 0.00000E+00 0.00000E+00 0.00000E+00
 -1        19 0.00000E+00 0.00000E+00 0.00000E+00
 -1        20 0.00000E+00 0.00000E+00 0.00000E+00
 -1        33-3.19969E-05 7.91751E-05 1.03009E-04
 -1        34-1.54919E-05 2.44812E-04 1.87740E-04
 -1        35-1.27726E-05 4.92563E-04 2.42730E-04
 -1        36-4.54694E-06 7.74314E-04 2.70061E-04
 -1        37 4.28974E-06 1.07187E-03 2.71861E-04
 -1        38 1.34836E-05 1.36763E-03 2.50296E-04
 -1        39 2.05935E-05 1.60878E-03 1.85211E-04
 -1        40 1.37333E-05 1.78317E-03 9.24391E-05
 -1        41 3.54427E-05 1.81788E-03 2.08185E-05
 -1        42 4.52919E-05 1.87244E-03 1.09129E-05
 -1        43-4.05972E-05 1.69562E-03-7.85197E-05
 -1        44-1.56394E-04 1.60328E-03-2.33842E-04
 -1        51 1.56407E-04 1.60340E-03-2.33935E-04
 -1        52 4.04787E-05 1.69559E-03-7.85698E-05
 -1        53-4.53642E-05 1.87250E-03 1.09636E-05
 -1        54-3.55749E-05 1.81786E-03 2.08214E-05
 -1        55-1.38209E-05 1.78319E-03 9.24330E-05
 -1        56-2.06951E-05 1.60877E-03 1.85194E-04
 -1        57-1.35569E-05 1.36763E-03 2.50285E-04
 -1        58-4.35582E-06 1.07187E-03 2.71844E-04
 -1        59 4.50514E-06 7.74316E-04 2.70046E-04
 -1        60 1.27432E-05 4.92561E-04 2.42714E-04
 -1        61 1.54791E-05 2.44811E-04 1.87729E-04
 -1        62 3.19922E-05 7.91727E-05 1.03003E-04
 -1        63 3.19878E-05 7.91671E-05-1.02989E-04
 -1        64 1.54760E-05 2.44813E-04-1.87699E-04
 -1        65 1.27297E-05 4.92559E-04-2.42671E-04
 -1        66 4.49628E-06 7.74328E-04-2.69980E-04
 -1        67-4.33304E-06 1.07183E-03-2.71769E-04
 -1        68-1.35339E-05 1.36768E-03-2.50191E-04
 -1        69-2.08552E-05 1.60885E-03-1.85093E-04
 -1        70-1.41158E-05 1.78349E-03-9.22783E-05
 -1        71-3.48307E-05 1.81713E-03-2.06184E-05
 -1        72-4.43484E-05 1.87167E-03-1.07614E-05
 -1        73 3.73214E-05 1.69851E-03 7.85880E-05
 -1        74 1.50473E-04 1.60858E-03 2.34002E-04
 -1        78-3.19924E-05 7.91684E-05-1.02994E-04