    1C
    1UUSER                                                              
    1UDATE              16.july.2018                                    
    1UTIME              13:22:07                                        
    1UHOST                                                              
    1UPGM               CalculiX                                        
    1UVERSION           Version 2.13                             
    1UCOMPILETIME       jue jun 14 00:40:39 CEST 2018                    
    1UDIR                                                               
    1UDBN                                                               
    1UMAT    1EL                                                        
    2C                           201                                     1
 -1         1 0.00000E+00 0.00000E+00 0.00000E+00
 -1         2 1.00000E+00 0.00000E+00 0.00000E+00
 -1         3 1.00000E+00 1.00000E+00 0.00000E+00
 -1         4 0.00000E+00 1.00000E+00 0.00000E+00
 -1         9 2.50000E-01 0.00000E+00 0.00000E+00
 -1        10 5.00000E-01 0.00000E+00 0.00000E+00
 -1        11 7.50000E-01 0.00000E+00 0.00000E+00
 -1        12 1.00000E+00 2.50000E-01 0.00000E+00
 -1        13 1.00000E+00 5.00000E-01 0.00000E+00
 -1        14 1.00000E+00 7.50000E-01 0.00000E+00
 -1        15 7.50000E-01 1.00000E+00 0.00000E+00
 -1        16 5.00000E-01 1.00000E+00 0.00000E+00
 -1        17 2.50000E-01 1.00000E+00 0.00000E+00
 -1        18 0.00000E+00 7.50000E-01 0.00000E+00
 -1        19 0.00000E+00 5.00000E-01 0.00000E+00
 -1        20 0.00000E+00 2.50000E-01 0.00000E+00
 -1        33 1.00000E+00 0.00000E+00 5.00000E-01
 -1        34 1.00000E+00 0.00000E+00 1.00000E+00
 -1        35 1.00000E+00 0.00000E+00 1.50000E+00
 -1        36 1.00000E+00 0.00000E+00 2.00000E+00
 -1        37 1.00000E+00 0.00000E+00 2.50000E+00
 -1        38 1.00000E+00 0.00000E+00 3.00000E+00
 -1        39 1.00000E+00 0.00000E+00 3.50000E+00
 -1        40 1.00000E+00 0.00000E+00 4.00000E+00
 -1        41 1.00000E+00 0.00000E+00 4.50000E+00
 -1        42 1.00000E+00 0.00000E+00 5.00000E+00
 -1        43 1.00000E+00 0.00000E+00 5.50000E+00
 -1        44 1.00000E+00 0.00000E+00 6.00000E+00
 -1        51 0.00000E+00 0.00000E+00 6.00000E+00
 -1        52 0.00000E+00 0.00000E+00 5.50000E+00
 -1        53 0.00000E+00 0.00000E+00 5.00000E+00
 -1        54 0.00000E+00 0.00000E+00 4.50000E+00
 -1        55 0.00000E+00 0.00000E+00 4.00000E+00
 -1        56 0.00000E+00 0.00000E+00 3.50000E+00
 -1        57 0.00000E+00 0.00000E+00 3.00000E+00
 -1        58 0.00000E+00 0.00000E+00 2.50000E+00
 -1        59 0.00000E+00 0.00000E+00 2.00000E+00
 -1        60 0.00000E+00 0.00000E+00 1.50000E+00
 -1        61 0.00000E+00 0.00000E+00 1.00000E+00
 -1        62 0.00000E+00 0.00000E+00 5.00000E-01
 -1        63 1.00000E+00 1.00000E+00 5.00000E-01
 -1        64 1.00000E+00 1.00000E+00 1.00000E+00
 -1        65 1.00000E+00 1.00000E+00 1.50000E+00
 -1        66 1.00000E+00 1.00000E+00 2.00000E+00
 -1        67 1.00000E+00 1.00000E+00 2.50000E+00
 -1        68 1.00000E+00 1.00000E+00 3.00000E+00
 -1        69 1.00000E+00 1.00000E+00 3.50000E+00
 -1        70 1.00000E+00 1.00000E+00 4.00000E+00
 -1        71 1.00000E+00 1.00000E+00 4.50000E+00
 -1        72 1.00000E+00 1.00000E+00 5.00000E+00
 -1        73 1.00000E+00 1.00000E+00 5.50000E+00
 -1        74 1.00000E+00 1.00000E+00 6.00000E+00
 -1        78 0.00000E+00 1.00000E+00 5.00000E-01
 -1        79 0.00000E+00 1.00000E+00 1.00000E+00
 -1        80 0.00000E+00 1.00000E+00 1.50000E+00
 -1        81 0.00000E+00 1.00000E+00 2.00000E+00
 -1        82 0.00000E+00 1.00000E+00 2.50000E+00
 -1        83 0.00000E+00 1.00000E+00 3.00000E+00
 -1        84 0.00000E+00 1.00000E+00 3.50000E+00
 -1        85 0.00000E+00 1.00000E+00 4.00000E+00
 -1        86 0.00000E+00 1.00000E+00 4.50000E+00
 -1        87 0.00000E+00 1.00000E+00 5.00000E+00
 -1        88 0.00000E+00 1.00000E+00 5.50000E+00
 -1        89 0.00000E+00 1.00000E+00 6.00000E+00
 -1        93 5.00000E-01 2.50000E-01 0.00000E+00
 -1        94 2.50000E-01 5.00000E-01 0.00000E+00
 -1        95 5.00000E-01 5.00000E-01 0.00000E+00
 -1        96 7.50000E-01 5.00000E-01 0.00000E+00
 -1        97 5.00000E-01 7.50000E-01 0.00000E+00
 -1       103 5.00000E-01 0.00000E+00 5.00000E-01
 -1       104 2.50000E-01 0.00000E+00 1.00000E+00
 -1       105 5.00000E-01 0.00000E+00 1.00000E+00
 -1       106 7.50000E-01 0.00000E+00 1.00000E+00
 -1       107 5.00000E-01 0.00000E+00 1.50000E+00
 -1       108 2.50000E-01 0.00000E+00 2.00000E+00
 -1       109 5.00000E-01 0.00000E+00 2.00000E+00
 -1       110 7.50000E-01 0.00000E+00 2.00000E+00
 -1       111 5.00000E-01 0.00000E+00 2.50000E+00
 -1       112 2.50000E-01 0.00000E+00 3.00000E+00
 -1       113 5.00000E-01 0.00000E+00 3.00000E+00
 -1       114 7.50000E-01 0.00000E+00 3.00000E+00
 -1       115 5.00000E-01 0.00000E+00 3.50000E+00
 -1       116 2.50000E-01 0.00000E+00 4.00000E+00
 -1       117 5.00000E-01 0.00000E+00 4.00000E+00
 -1       118 7.50000E-01 0.00000E+00 4.00000E+00
 -1       119 5.00000E-01 0.00000E+00 4.50000E+00
 -1       120 2.50000E-01 0.00000E+00 5.00000E+00
 -1       121 5.00000E-01 0.00000E+00 5.00000E+00
 -1       122 7.50000E-01 0.00000E+00 5.00000E+00
 -1       123 5.00000E-01 0.00000E+00 5.50000E+00
 -1       124 2.50000E-01 0.00000E+00 6.00000E+00
 -1       125 5.00000E-01 0.00000E+00 6.00000E+00
 -1       126 7.50000E-01 0.00000E+00 6.00000E+00
 -1       132 1.00000E+00 5.00000E-01 5.00000E-01
 -1       133 1.00000E+00 2.50000E-01 1.00000E+00
 -1       134 1.00000E+00 5.00000E-01 1.00000E+00
 -1       135 1.00000E+00 7.50000E-01 1.00000E+00
 -1       136 1.00000E+00 5.00000E-01 1.50000E+00
 -1       137 1.00000E+00 2.50000E-01 2.00000E+00
 -1       138 1.00000E+00 5.00000E-01 2.00000E+00
 -1       139 1.00000E+00 7.50000E-01 2.00000E+00
 -1       140 1.00000E+00 5.00000E-01 2.50000E+00
 -1       141 1.00000E+00 2.50000E-01 3.00000E+00
 -1       142 1.00000E+00 5.00000E-01 3.00000E+00
 -1       143 1.00000E+00 7.50000E-01 3.00000E+00
 -1       144 1.00000E+00 5.00000E-01 3.50000E+00
 -1       145 1.00000E+00 2.50000E-01 4.00000E+00
 -1       146 1.00000E+00 5.00000E-01 4.00000E+00
 -1       147 1.00000E+00 7.50000E-01 4.00000E+00
 -1       148 1.00000E+00 5.00000E-01 4.50000E+00
 -1       149 1.00000E+00 2.50000E-01 5.00000E+00
 -1       150 1.00000E+00 5.00000E-01 5.00000E+00
 -1       151 1.00000E+00 7.50000E-01 5.00000E+00
 -1       152 1.00000E+00 5.00000E-01 5.50000E+00
 -1       153 1.00000E+00 2.50000E-01 6.00000E+00
 -1       154 1.00000E+00 5.00000E-01 6.00000E+00
 -1       155 1.00000E+00 7.50000E-01 6.00000E+00
 -1       161 5.00000E-01 1.00000E+00 5.00000E-01
 -1       162 7.50000E-01 1.00000E+00 1.00000E+00
 -1       163 5.00000E-01 1.00000E+00 1.00000E+00
 -1       164 2.50000E-01 1.00000E+00 1.00000E+00
 -1       165 5.00000E-01 1.00000E+00 1.50000E+00
 -1       166 7.50000E-01 1.00000E+00 2.00000E+00
 -1       167 5.00000E-01 1.00000E+00 2.00000E+00
 -1       168 2.50000E-01 1.00000E+00 2.00000E+00
 -1       169 5.00000E-01 1.00000E+00 2.50000E+00
 -1       170 7.50000E-01 1.00000E+00 3.00000E+00
 -1       171 5.00000E-01 1.00000E+00 3.00000E+00
 -1       172 2.50000E-01 1.00000E+00 3.00000E+00
 -1       173 5.00000E-01 1.00000E+00 3.50000E+00
 -1       174 7.50000E-01 1.00000E+00 4.00000E+00
 -1       175 5.00000E-01 1.00000E+00 4.00000E+00
 -1       176 2.50000E-01 1.00000E+00 4.00000E+00
 -1       177 5.00000E-01 1.00000E+00 4.50000E+00
 -1       178 7.50000E-01 1.00000E+00 5.00000E+00
 -1       179 5.00000E-01 1.00000E+00 5.00000E+00
 -1       180 2.50000E-01 1.00000E+00 5.00000E+00
 -1       181 5.00000E-01 1.00000E+00 5.50000E+00
 -1       182 7.50000E-01 1.00000E+00 6.00000E+00
 -1       183 5.00000E-01 1.00000E+00 6.00000E+00
 -1       184 2.50000E-01 1.00000E+00 6.00000E+00
 -1       190 0.00000E+00 5.00000E-01 5.00000E-01
 -1       191 0.00000E+00 7.50000E-01 1.00000E+00
 -1       192 0.00000E+00 5.00000E-01 1.00000E+00
 -1       193 0.00000E+00 2.50000E-01 1.00000E+00
 -1       194 0.00000E+00 5.00000E-01 1.50000E+00
 -1       195 0.00000E+00 7.50000E-01 2.00000E+00
 -1       196 0.00000E+00 5.00000E-01 2.00000E+00
 -1       197 0.00000E+00 2.50000E-01 2.00000E+00
 -1       198 0.00000E+00 5.00000E-01 2.50000E+00
 -1       199 0.00000E+00 7.50000E-01 3.00000E+00
 -1       200 0.00000E+00 5.00000E-01 3.00000E+00
 -1       201 0.00000E+00 2.50000E-01 3.00000E+00
 -1       202 0.00000E+00 5.00000E-01 3.50000E+00
 -1       203 0.00000E+00 7.50000E-01 4.00000E+00
 -1       204 0.00000E+00 5.00000E-01 4.00000E+00
 -1       205 0.00000E+00 2.50000E-01 4.00000E+00
 -1       206 0.00000E+00 5.00000E-01 4.50000E+00
 -1       207 0.00000E+00 7.50000E-01 5.00000E+00
 -1       208 0.00000E+00 5.00000E-01 5.00000E+00
 -1       209 0.00000E+00 2.50000E-01 5.00000E+00
 -1       210 0.00000E+00 5.00000E-01 5.50000E+00
 -1       211 0.00000E+00 7.50000E-01 6.00000E+00
 -1       212 0.00000E+00 5.00000E-01 6.00000E+00
 -1       213 0.00000E+00 2.50000E-01 6.00000E+00
 -1       219 5.00000E-01 5.00000E-01 5.00000E-01
 -1       220 5.00000E-01 2.50000E-01 1.00000E+00
 -1       221 2.50000E-01 5.00000E-01 1.00000E+00
 -1       222 5.00000E-01 5.00000E-01 1.00000E+00
 -1       223 7.50000E-01 5.00000E-01 1.00000E+00
 -1       224 5.00000E-01 7.50000E-01 1.00000E+00
 -1       225 5.00000E-01 5.00000E-01 1.50000E+00
 -1       226 5.00000E-01 2.50000E-01 2.00000E+00
 -1       227 2.50000E-01 5.00000E-01 2.00000E+00
 -1       228 5.00000E-01 5.00000E-01 2.00000E+00
 -1       229 7.50000E-01 5.00000E-01 2.00000E+00
 -1       230 5.00000E-01 7.50000E-01 2.00000E+00
 -1       231 5.00000E-01 5.00000E-01 2.50000E+00
 -1       232 5.00000E-01 2.50000E-01 3.00000E+00
 -1       233 2.50000E-01 5.00000E-01 3.00000E+00
 -1       234 5.00000E-01 5.00000E-01 3.00000E+00
 -1       235 7.50000E-01 5.00000E-01 3.00000E+00
 -1       236 5.00000E-01 7.50000E-01 3.00000E+00
 -1       237 5.00000E-01 5.00000E-01 3.50000E+00
 -1       238 5.00000E-01 2.50000E-01 4.00000E+00
 -1       239 2.50000E-01 5.00000E-01 4.00000E+00
 -1       240 5.00000E-01 5.00000E-01 4.00000E+00
 -1       241 7.50000E-01 5.00000E-01 4.00000E+00
 -1       242 5.00000E-01 7.50000E-01 4.00000E+00
 -1       243 5.00000E-01 5.00000E-01 4.50000E+00
 -1       244 5.00000E-01 2.50000E-01 5.00000E+00
 -1       245 2.50000E-01 5.00000E-01 5.00000E+00
 -1       246 5.00000E-01 5.00000E-01 5.00000E+00
 -1       247 7.50000E-01 5.00000E-01 5.00000E+00
 -1       248 5.00000E-01 7.50000E-01 5.00000E+00
 -1       249 5.00000E-01 5.00000E-01 5.50000E+00
 -1       250 5.00000E-01 2.50000E-01 6.00000E+00
 -1       251 2.50000E-01 5.00000E-01 6.00000E+00
 -1       252 5.00000E-01 5.00000E-01 6.00000E+00
 -1       253 7.50000E-01 5.00000E-01 6.00000E+00
 -1       254 5.00000E-01 7.50000E-01 6.00000E+00
 -3
    3C                            24                                     1
 -1         1    4    0    1
 -2         1        10        95        19        61       105       222       192         9        93
 -2        94        20        62       103       219       190       104       220       221       193
 -1         2    4    0    1
 -2        10         2        13        95       105        34       134       222        11        12
 -2        96        93       103        33       132       219       106       133       223       220
 -1         3    4    0    1
 -2        19        95        16         4       192       222       163        79        94        97
 -2        17        18       190       219       161        78       221       224       164       191
 -1         4    4    0    1
 -2        95        13         3        16       222       134        64       163        96        14
 -2        15        97       219       132        63       161       223       135       162       224
 -1         5    4    0    1
 -2        61       105       222       192        59       109       228       196       104       220
 -2       221       193        60       107       225       194       108       226       227       197
 -1         6    4    0    1
 -2       105        34       134       222       109        36       138       228       106       133
 -2       223       220       107        35       136       225       110       137       229       226
 -1         7    4    0    1
 -2       192       222       163        79       196       228       167        81       221       224
 -2       164       191       194       225       165        80       227       230       168       195
 -1         8    4    0    1
 -2       222       134        64       163       228       138        66       167       223       135
 -2       162       224       225       136        65       165       229       139       166       230
 -1         9    4    0    1
 -2        59       109       228       196        57       113       234       200       108       226
 -2       227       197        58       111       231       198       112       232       233       201
 -1        10    4    0    1
 -2       109        36       138       228       113        38       142       234       110       137
 -2       229       226       111        37       140       231       114       141       235       232
 -1        11    4    0    1
 -2       196       228       167        81       200       234       171        83       227       230
 -2       168       195       198       231       169        82       233       236       172       199
 -1        12    4    0    1
 -2       228       138        66       167       234       142        68       171       229       139
 -2       166       230       231       140        67       169       235       143       170       236
 -1        13    4    0    1
 -2        57       113       234       200        55       117       240       204       112       232
 -2       233       201        56       115       237       202       116       238       239       205
 -1        14    4    0    1
 -2       113        38       142       234       117        40       146       240       114       141
 -2       235       232       115        39       144       237       118       145       241       238
 -1        15    4    0    1
 -2       200       234       171        83       204       240       175        85       233       236
 -2       172       199       202       237       173        84       239       242       176       203
 -1        16    4    0    1
 -2       234       142        68       171       240       146        70       175       235       143
 -2       170       236       237       144        69       173       241       147       174       242
 -1        17    4    0    1
 -2        55       117       240       204        53       121       246       208       116       238
 -2       239       205        54       119       243       206       120       244       245       209
 -1        18    4    0    1
 -2       117        40       146       240       121        42       150       246       118       145
 -2       241       238       119        41       148       243       122       149       247       244
 -1        19    4    0    1
 -2       204       240       175        85       208       246       179        87       239       242
 -2       176       203       206       243       177        86       245       248       180       207
 -1        20    4    0    1
 -2       240       146        70       175       246       150        72       179       241       147
 -2       174       242       243       148        71       177       247       151       178       248
 -1        21    4    0    1
 -2        53       121       246       208        51       125       252       212       120       244
 -2       245       209        52       123       249       210       124       250       251       213
 -1        22    4    0    1
 -2       121        42       150       246       125        44       154       252       122       149
 -2       247       244       123        43       152       249       126       153       253       250
 -1        23    4    0    1
 -2       208       246       179        87       212       252       183        89       245       248
 -2       180       207       210       249       181        88       251       254       184       211
 -1        24    4    0    1
 -2       246       150        72       179       252       154        74       183       247       151
 -2       178       248       249       152        73       181       253       155       182       254
 -3
    1PSTEP                         1           1           1          
  100CL  101 5.00000E-03         201                     1    1           1
 -4  DISP        4    1
 -5  D1          1    2    1    0
 -5  D2          1    2    2    0
 -5  D3          1    2    3    0
 -5  ALL         1    2    0    0    1ALL
 -1         1 0.00000E+00 0.00000E+00 0.00000E+00
 -1         2 0.00000E+00 0.00000E+00 0.00000E+00
 -1         3 0.00000E+00 0.00000E+00 0.00000E+00
 -1         4 0.00000E+00 0.00000E+00 0.00000E+00
 -1         9 0.00000E+00 0.00000E+00 0.00000E+00
 -1        10 0.00000E+00 0.00000E+00 0.00000E+00
 -1        11 0.00000E+00 0.00000E+00 0.00000E+00
 -1        12 0.00000E+00 0.00000E+00 0.00000E+00
 -1        13 0.00000E+00 0.00000E+00 0.00000E+00
 -1        14 0.00000E+00 0.00000E+00 0.00000E+00
 -1        15 0.00000E+00 0.00000E+00 0.00000E+00
 -1        16 0.00000E+00 0.00000E+00 0.00000E+00
 -1        17 0.00000E+00 0.00000E+00 0.00000E+00
 -1        18 0.00000E+00 0.00000E+00 0.00000E+00
 -1        19 0.00000E+00 0.00000E+00 0.00000E+00
 -1        20 0.00000E+00 0.00000E+00 0.00000E+00
 -1        33 6.38138E-05-1.55558E-04-2.04444E-04
 -1        34 3.13471E-05-4.81554E-04-3.74286E-04
 -1        35 2.57326E-05-9.70225E-04-4.83906E-04
 -1        36 8.12053E-06-1.52762E-03-5.40999E-04
 -1        37-4.98424E-06-2.11045E-03-5.47957E-04
 -1        38-2.07434E-05-2.69294E-03-5.19379E-04
 -1        39-4.31734E-05-3.19513E-03-3.85393E-04
 -1        40-4.41218E-05-3.54436E-03-2.10211E-04
 -1        41-4.18172E-05-3.57638E-03-6.47790E-05
 -1        42-5.45291E-05-3.73114E-03-1.49040E-04
 -1        43 5.05491E-05-3.48769E-03 8.36126E-05
 -1        44-7.72426E-05-3.49778E-03 4.47515E-04
 -1        51 7.71019E-05-3.49703E-03 4.47484E-04
 -1        52-5.04888E-05-3.48749E-03 8.36158E-05
 -1        53 5.44329E-05-3.73127E-03-1.49047E-04
 -1        54 4.18031E-05-3.57640E-03-6.47227E-05
 -1        55 4.40421E-05-3.54432E-03-2.10235E-04
 -1        56 4.31530E-05-3.19510E-03-3.85393E-04
 -1        57 2.06886E-05-2.69294E-03-5.19384E-04
 -1        58 4.95660E-06-2.11044E-03-5.47955E-04
 -1        59-8.15014E-06-1.52761E-03-5.41004E-04
 -1        60-2.57457E-05-9.70218E-04-4.83910E-04
 -1        61-3.13585E-05-4.81552E-04-3.74290E-04
 -1        62-6.38159E-05-1.55558E-04-2.04446E-04
 -1        63-6.25809E-05-1.53749E-04 2.00840E-04
 -1        64-3.11228E-05-4.80922E-04 3.66621E-04
 -1        65-2.34272E-05-9.69641E-04 4.73121E-04
 -1        66-7.94640E-06-1.53373E-03 5.26688E-04
 -1        67 5.10707E-06-2.10121E-03 5.30322E-04
 -1        68 1.48309E-05-2.69400E-03 4.93498E-04
 -1        69 5.81057E-05-3.20460E-03 3.57882E-04
 -1        70 6.52238E-05-3.63203E-03 1.84047E-04
 -1        71-3.50863E-06-3.46092E-03 3.29519E-05
 -1        72-9.97515E-05-3.48289E-03 7.90520E-05
 -1        73 1.94199E-04-3.87880E-03-1.67056E-04
 -1        74 3.06404E-04-4.39510E-03-4.94772E-04
 -1        78 6.25778E-05-1.53750E-04 2.00838E-04
 -1        79 3.11197E-05-4.80922E-04 3.66617E-04
 -1        80 2.34211E-05-9.69635E-04 4.73117E-04
 -1        81 7.94432E-06-1.53373E-03 5.26688E-04
 -1        82-5.12407E-06-2.10120E-03 5.30321E-04
 -1        83-1.48352E-05-2.69399E-03 4.93493E-04
 -1        84-5.81160E-05-3.20458E-03 3.57876E-04
 -1        85-6.51781E-05-3.63207E-03 1.84077E-04
 -1        86 3.46521E-06-3.46088E-03 3.29852E-05
 -1        87 9.97995E-05-3.48284E-03 7.89526E-05
 -1        88-1.94156E-04-3.87871E-03-1.67224E-04
 -1        89-3.05921E-04-4.39557E-03-4.94799E-04
 -1        93 0.00000E+00 0.00000E+00 0.00000E+00
 -1        94 0.00000E+00 0.00000E+00 0.00000E+00
 -1        95 0.00000E+00 0.00000E+00 0.00000E+00
 -1        96 0.00000E+00 0.00000E+00 0.00000E+00
 -1        97 0.00000E+00 0.00000E+00 0.00000E+00
 -1       103-1.19852E-09-1.81820E-04-2.00639E-04
 -1       104-1.56328E-05-5.01018E-04-3.80213E-04
 -1       105-2.80006E-09-5.03532E-04-3.82834E-04
 -1       106 1.56241E-05-5.01020E-04-3.80211E-04
 -1       107-8.86626E-09-9.80240E-04-4.86625E-04
 -1       108-3.33402E-06-1.52969E-03-5.44691E-04
 -1       109-8.25376E-09-1.54049E-03-5.43720E-04
 -1       110 3.31249E-06-1.52969E-03-5.44690E-04
 -1       111-1.74281E-08-2.10171E-03-5.51712E-04
 -1       112 7.39306E-06-2.71778E-03-5.21663E-04
 -1       113-6.13907E-09-2.71067E-03-5.23051E-04
 -1       114-7.43278E-06-2.71779E-03-5.21659E-04
 -1       115-2.62841E-08-3.15606E-03-3.93775E-04
 -1       116 3.31293E-05-3.51826E-03-2.04583E-04
 -1       117 7.62540E-09-3.64268E-03-1.84509E-04
 -1       118-3.31371E-05-3.51823E-03-2.04584E-04
 -1       119-4.15303E-08-3.55214E-03-6.67534E-05
 -1       120-9.20932E-06-3.91354E-03-1.14171E-04
 -1       121 1.02992E-07-3.76098E-03-1.18200E-04
 -1       122 9.16691E-06-3.91368E-03-1.14142E-04
 -1       123-7.58834E-08-3.48695E-03-2.34617E-05
 -1       124 1.54112E-04-2.95423E-03 4.28385E-04
 -1       125 3.16620E-07-3.60573E-03 4.47806E-04
 -1       126-1.53493E-04-2.95380E-03 4.28334E-04
 -1       132 7.37649E-07-1.18567E-04-1.69647E-06
 -1       133 1.61468E-05-4.69300E-04-1.78084E-04
 -1       134 9.00899E-07-4.73993E-04-3.11837E-06
 -1       135-1.53667E-05-4.69352E-04 1.70894E-04
 -1       136-1.10960E-07-9.52605E-04-5.87656E-06
 -1       137 4.84619E-06-1.52560E-03-2.68881E-04
 -1       138 5.71248E-07-1.51773E-03-7.74775E-06
 -1       139-3.63219E-06-1.52714E-03 2.54668E-04
 -1       140 1.66239E-06-2.12483E-03-9.74556E-06
 -1       141-1.04277E-05-2.67875E-03-2.44790E-04
 -1       142 5.45186E-06-2.68551E-03-5.97358E-06
 -1       143 1.12993E-05-2.68510E-03 2.23624E-04
 -1       144-8.50072E-06-3.21824E-03-1.33658E-05
 -1       145-2.00501E-05-3.56212E-03-1.32812E-04
 -1       146-1.27561E-05-3.46446E-03-2.50843E-05
 -1       147 1.83425E-05-3.58493E-03 1.00070E-04
 -1       148 2.62627E-05-3.68055E-03-2.43289E-05
 -1       149-3.32888E-05-3.41865E-03-4.76735E-05
 -1       150 8.31494E-05-3.45043E-03-3.87310E-06
 -1       151 2.74505E-05-3.35698E-03-5.06931E-07
 -1       152-1.22522E-04-3.71961E-03 8.45870E-06
 -1       153 7.41823E-05-3.65123E-03 1.90205E-04
 -1       154-1.20509E-04-2.50593E-03-2.17227E-05
 -1       155-6.15271E-05-3.88308E-03-2.38614E-04
 -1       161-9.61140E-10-1.80525E-04 1.96767E-04
 -1       162-1.53478E-05-5.00259E-04 3.73157E-04
 -1       163-2.51492E-09-5.01004E-04 3.75351E-04
 -1       164 1.53437E-05-5.00259E-04 3.73155E-04
 -1       165-2.50670E-09-9.80268E-04 4.76076E-04
 -1       166-3.96291E-06-1.52695E-03 5.30057E-04
 -1       167-6.28521E-09-1.53617E-03 5.32228E-04
 -1       168 3.95624E-06-1.52695E-03 5.30058E-04
 -1       169-4.26021E-09-2.10279E-03 5.30370E-04
 -1       170 7.65285E-06-2.71719E-03 5.00781E-04
 -1       171-8.45030E-09-2.67954E-03 4.96579E-04
 -1       172-7.66627E-06-2.71720E-03 5.00779E-04
 -1       173-1.61829E-09-3.17676E-03 3.68435E-04
 -1       174 3.10209E-05-3.46081E-03 1.70754E-04
 -1       175-8.23523E-09-3.55998E-03 1.71943E-04
 -1       176-3.09951E-05-3.46078E-03 1.70773E-04
 -1       177 9.72793E-10-3.51103E-03 2.06320E-05
 -1       178-4.19950E-05-4.00608E-03 7.14855E-05
 -1       179 1.49573E-08-3.58095E-03 4.90537E-05
 -1       180 4.19898E-05-4.00624E-03 7.14292E-05
 -1       181 4.57451E-08-3.68247E-03-5.97486E-05
 -1       182 1.07046E-04-2.57146E-03-4.71778E-04
 -1       183 1.39300E-07-4.34382E-03-4.76796E-04
 -1       184-1.06481E-04-2.57092E-03-4.71790E-04
 -1       190-7.41094E-07-1.18568E-04-1.69943E-06
 -1       191 1.53641E-05-4.69351E-04 1.70892E-04
 -1       192-9.05621E-07-4.73990E-04-3.12148E-06
 -1       193-1.61536E-05-4.69297E-04-1.78088E-04
 -1       194 1.00981E-07-9.52601E-04-5.88005E-06
 -1       195 3.62545E-06-1.52713E-03 2.54666E-04
 -1       196-5.73383E-07-1.51772E-03-7.74897E-06
 -1       197-4.86508E-06-1.52559E-03-2.68886E-04
 -1       198-1.69416E-06-2.12482E-03-9.75100E-06
 -1       199-1.12967E-05-2.68509E-03 2.23629E-04
 -1       200-5.47999E-06-2.68549E-03-5.97136E-06
 -1       201 1.03998E-05-2.67874E-03-2.44790E-04
 -1       202 8.49682E-06-3.21823E-03-1.33619E-05
 -1       203-1.83451E-05-3.58491E-03 1.00080E-04
 -1       204 1.28452E-05-3.46444E-03-2.50625E-05
 -1       205 2.00091E-05-3.56211E-03-1.32814E-04
 -1       206-2.64193E-05-3.68053E-03-2.43330E-05
 -1       207-2.73028E-05-3.35700E-03-4.65746E-07
 -1       208-8.34260E-05-3.45031E-03-3.77214E-06
 -1       209 3.32516E-05-3.41856E-03-4.76414E-05
 -1       210 1.22964E-04-3.71970E-03 8.41551E-06
 -1       211 6.13052E-05-3.88295E-03-2.38755E-04
 -1       212 1.21565E-04-2.50602E-03-2.18535E-05
 -1       213-7.42280E-05-3.65128E-03 1.90264E-04
 -1       219-6.69443E-10-1.44334E-04-1.51705E-06
 -1       220-3.41565E-09-4.89112E-04-1.83744E-04
 -1       221-4.24618E-07-4.90602E-04-3.85378E-06
 -1       222-3.85932E-09-4.91992E-04-4.02572E-06
 -1       223 4.19138E-07-4.90604E-04-3.85274E-06
 -1       224-3.29475E-09-4.87688E-04 1.76390E-04
 -1       225-4.06514E-09-9.64795E-04-5.44266E-06
 -1       226-8.93186E-09-1.53311E-03-2.73166E-04
 -1       227-4.04989E-07-1.51893E-03-7.34152E-06
 -1       228-1.03293E-08-1.52074E-03-8.89613E-06
 -1       229 3.91083E-07-1.51893E-03-7.34086E-06
 -1       230-8.07169E-09-1.53136E-03 2.57233E-04
 -1       231-6.72893E-09-2.12348E-03-8.02771E-06
 -1       232-1.32885E-08-2.68678E-03-2.49913E-04
 -1       233-2.17107E-06-2.68256E-03-1.33151E-05
 -1       234-1.92184E-08-2.67959E-03-1.46595E-05
 -1       235 2.14798E-06-2.68256E-03-1.33197E-05
 -1       236-1.37380E-08-2.66961E-03 2.26504E-04
 -1       237-6.57932E-09-3.19086E-03-1.00700E-05
 -1       238-8.76465E-09-3.61030E-03-1.24868E-04
 -1       239 5.50246E-06-3.45213E-03-1.52884E-05
 -1       240-3.02489E-08-3.47561E-03-2.07987E-05
 -1       241-5.52700E-06-3.45215E-03-1.53036E-05
 -1       242-2.07074E-08-3.57255E-03 8.80108E-05
 -1       243 9.64759E-09-3.65511E-03-2.21749E-05
 -1       244 5.96639E-09-3.51902E-03-2.16841E-05
 -1       245-3.19297E-05-3.61085E-03-2.67233E-05
 -1       246-8.08180E-08-3.65019E-03-2.03583E-05
 -1       247 3.18562E-05-3.61084E-03-2.67507E-05
 -1       248-1.60354E-08-3.43550E-03-1.06148E-05
 -1       249 3.19515E-08-3.52327E-03-1.45882E-05
 -1       250 5.25008E-08-4.08160E-03 1.73815E-04
 -1       251 2.62363E-05-2.57306E-03-1.13584E-05
 -1       252-2.20966E-07-3.11812E-03-1.72267E-05
 -1       253-2.64802E-05-2.57332E-03-1.14983E-05
 -1       254-1.39351E-07-4.41071E-03-2.54258E-04
 -3
    1PSTEP                         2           2           1          
  100CL  102 1.00000E-02         201                     1    2           1
 -4  DISP        4    1
 -5  D1          1    2    1    0
 -5  D2          1    2    2    0
 -5  D3          1    2    3    0
 -5  ALL         1    2    0    0    1ALL
 -1         1 0.00000E+00 0.00000E+00 0.00000E+00
 -1         2 0.00000E+00 0.00000E+00 0.00000E+00
 -1         3 0.00000E+00 0.00000E+00 0.00000E+00
 -1         4 0.00000E+00 0.00000E+00 0.00000E+00
 -1         9 0.00000E+00 0.00000E+00 0.00000E+00
 -1        10 0.00000E+00 0.00000E+00 0.00000E+00
 -1        11 0.00000E+00 0.00000E+00 0.00000E+00
 -1        12 0.00000E+00 0.00000E+00 0.00000E+00
 -1        13 0.00000E+00 0.00000E+00 0.00000E+00
 -1        14 0.00000E+00 0.00000E+00 0.00000E+00
 -1        15 0.00000E+00 0.00000E+00 0.00000E+00
 -1        16 0.00000E+00 0.00000E+00 0.00000E+00
 -1        17 0.00000E+00 0.00000E+00 0.00000E+00
 -1        18 0.00000E+00 0.00000E+00 0.00000E+00
 -1        19 0.00000E+00 0.00000E+00 0.00000E+00
 -1        20 0.00000E+00 0.00000E+00 0.00000E+00
 -1        33-3.18014E-05 7.85548E-05 1.02342E-04
 -1        34-1.54451E-05 2.42962E-04 1.86604E-04
 -1        35-1.27134E-05 4.89030E-04 2.41431E-04
 -1        36-4.58132E-06 7.69157E-04 2.68822E-04
 -1        37 4.04176E-06 1.06468E-03 2.70960E-04
 -1        38 1.30471E-05 1.35929E-03 2.49918E-04
 -1        39 2.09753E-05 1.60078E-03 1.85570E-04
 -1        40 1.42453E-05 1.77639E-03 9.33421E-05
 -1        41 3.30297E-05 1.80693E-03 2.27762E-05
 -1        42 3.98365E-05 1.86057E-03 1.40220E-05
 -1        43-3.07980E-05 1.70517E-03-7.45734E-05
 -1        44-1.42074E-04 1.63098E-03-2.31562E-04
 -1        51 1.42249E-04 1.62996E-03-2.31560E-04
 -1        52 3.08308E-05 1.70495E-03-7.45614E-05
 -1        53-4.00146E-05 1.86068E-03 1.40216E-05
 -1        54-3.31152E-05 1.80698E-03 2.27577E-05
 -1        55-1.43156E-05 1.77631E-03 9.33357E-05
 -1        56-2.10271E-05 1.60075E-03 1.85557E-04
 -1        57-1.31017E-05 1.35928E-03 2.49901E-04
 -1        58-4.07286E-06 1.06467E-03 2.70946E-04
 -1        59 4.55597E-06 7.69142E-04 2.68808E-04
 -1        60 1.27010E-05 4.89023E-04 2.41420E-04
 -1        61 1.54384E-05 2.42957E-04 1.86596E-04
 -1        62 3.17997E-05 7.85531E-05 1.02338E-04
 -1        63 3.17436E-05 7.84734E-05-1.02167E-04
 -1        64 1.53802E-05 2.42890E-04-1.86290E-04
 -1        65 1.26921E-05 4.88937E-04-2.40944E-04
 -1        66 4.54463E-06 7.68883E-04-2.68208E-04
 -1        67-4.29618E-06 1.06501E-03-2.70228E-04
 -1        68-1.35005E-05 1.35963E-03-2.49156E-04
 -1        69-2.03567E-05 1.60003E-03-1.84627E-04
 -1        70-1.34071E-05 1.77415E-03-9.22278E-05
 -1        71-3.59469E-05 1.81130E-03-2.15075E-05
 -1        72-4.68080E-05 1.86947E-03-1.30852E-05
 -1        73 4.31840E-05 1.68981E-03 7.54616E-05
 -1        74 1.59750E-04 1.59893E-03 2.32921E-04
 -1        78-3.17465E-05 7.84750E-05-1.02171E-04