    1C
    1UUSER                                                              
    1UDATE              17.july.2018                                    
    1UTIME              21:44:31                                        
    1UHOST                                                              
    1UPGM               CalculiX                                        
    1UVERSION           Version 2.13                             
    1UCOMPILETIME       jue jun 14 00:40:39 CEST 2018                    
    1UDIR                                                               
    1UDBN                                                               
    1UMAT    1EL                                                        
    2C                            81                                     1
 -1         5 0.00000E+00 0.00000E+00 8.00000E+00
 -1         6 1.00000E+00 0.00000E+00 8.00000E+00
 -1         7 1.00000E+00 1.00000E+00 8.00000E+00
 -1         8 0.00000E+00 1.00000E+00 8.00000E+00
 -1        21 2.50000E-01 0.00000E+00 8.00000E+00
 -1        22 5.00000E-01 0.00000E+00 8.00000E+00
 -1        23 7.50000E-01 0.00000E+00 8.00000E+00
 -1        24 1.00000E+00 2.50000E-01 8.00000E+00
 -1        25 1.00000E+00 5.00000E-01 8.00000E+00
 -1        26 1.00000E+00 7.50000E-01 8.00000E+00
 -1        27 7.50000E-01 1.00000E+00 8.00000E+00
 -1        28 5.00000E-01 1.00000E+00 8.00000E+00
 -1        29 2.50000E-01 1.00000E+00 8.00000E+00
 -1        30 0.00000E+00 7.50000E-01 8.00000E+00
 -1        31 0.00000E+00 5.00000E-01 8.00000E+00
 -1        32 0.00000E+00 2.50000E-01 8.00000E+00
 -1        44 1.00000E+00 0.00000E+00 6.00000E+00
 -1        45 1.00000E+00 0.00000E+00 6.50000E+00
 -1        46 1.00000E+00 0.00000E+00 7.00000E+00
 -1        47 1.00000E+00 0.00000E+00 7.50000E+00
 -1        48 0.00000E+00 0.00000E+00 7.50000E+00
 -1        49 0.00000E+00 0.00000E+00 7.00000E+00
 -1        50 0.00000E+00 0.00000E+00 6.50000E+00
 -1        51 0.00000E+00 0.00000E+00 6.00000E+00
 -1        74 1.00000E+00 1.00000E+00 6.00000E+00
 -1        75 1.00000E+00 1.00000E+00 6.50000E+00
 -1        76 1.00000E+00 1.00000E+00 7.00000E+00
 -1        77 1.00000E+00 1.00000E+00 7.50000E+00
 -1        89 0.00000E+00 1.00000E+00 6.00000E+00
 -1        90 0.00000E+00 1.00000E+00 6.50000E+00
 -1        91 0.00000E+00 1.00000E+00 7.00000E+00
 -1        92 0.00000E+00 1.00000E+00 7.50000E+00
 -1        98 5.00000E-01 2.50000E-01 8.00000E+00
 -1        99 2.50000E-01 5.00000E-01 8.00000E+00
 -1       100 5.00000E-01 5.00000E-01 8.00000E+00
 -1       101 7.50000E-01 5.00000E-01 8.00000E+00
 -1       102 5.00000E-01 7.50000E-01 8.00000E+00
 -1       124 2.50000E-01 0.00000E+00 6.00000E+00
 -1       125 5.00000E-01 0.00000E+00 6.00000E+00
 -1       126 7.50000E-01 0.00000E+00 6.00000E+00
 -1       127 5.00000E-01 0.00000E+00 6.50000E+00
 -1       128 2.50000E-01 0.00000E+00 7.00000E+00
 -1       129 5.00000E-01 0.00000E+00 7.00000E+00
 -1       130 7.50000E-01 0.00000E+00 7.00000E+00
 -1       131 5.00000E-01 0.00000E+00 7.50000E+00
 -1       153 1.00000E+00 2.50000E-01 6.00000E+00
 -1       154 1.00000E+00 5.00000E-01 6.00000E+00
 -1       155 1.00000E+00 7.50000E-01 6.00000E+00
 -1       156 1.00000E+00 5.00000E-01 6.50000E+00
 -1       157 1.00000E+00 2.50000E-01 7.00000E+00
 -1       158 1.00000E+00 5.00000E-01 7.00000E+00
 -1       159 1.00000E+00 7.50000E-01 7.00000E+00
 -1       160 1.00000E+00 5.00000E-01 7.50000E+00
 -1       182 7.50000E-01 1.00000E+00 6.00000E+00
 -1       183 5.00000E-01 1.00000E+00 6.00000E+00
 -1       184 2.50000E-01 1.00000E+00 6.00000E+00
 -1       185 5.00000E-01 1.00000E+00 6.50000E+00
 -1       186 7.50000E-01 1.00000E+00 7.00000E+00
 -1       187 5.00000E-01 1.00000E+00 7.00000E+00
 -1       188 2.50000E-01 1.00000E+00 7.00000E+00
 -1       189 5.00000E-01 1.00000E+00 7.50000E+00
 -1       211 0.00000E+00 7.50000E-01 6.00000E+00
 -1       212 0.00000E+00 5.00000E-01 6.00000E+00
 -1       213 0.00000E+00 2.50000E-01 6.00000E+00
 -1       214 0.00000E+00 5.00000E-01 6.50000E+00
 -1       215 0.00000E+00 7.50000E-01 7.00000E+00
 -1       216 0.00000E+00 5.00000E-01 7.00000E+00
 -1       217 0.00000E+00 2.50000E-01 7.00000E+00
 -1       218 0.00000E+00 5.00000E-01 7.50000E+00
 -1       250 5.00000E-01 2.50000E-01 6.00000E+00
 -1       251 2.50000E-01 5.00000E-01 6.00000E+00
 -1       252 5.00000E-01 5.00000E-01 6.00000E+00
 -1       253 7.50000E-01 5.00000E-01 6.00000E+00
 -1       254 5.00000E-01 7.50000E-01 6.00000E+00
 -1       255 5.00000E-01 5.00000E-01 6.50000E+00
 -1       256 5.00000E-01 2.50000E-01 7.00000E+00
 -1       257 2.50000E-01 5.00000E-01 7.00000E+00
 -1       258 5.00000E-01 5.00000E-01 7.00000E+00
 -1       259 7.50000E-01 5.00000E-01 7.00000E+00
 -1       260 5.00000E-01 7.50000E-01 7.00000E+00
 -1       261 5.00000E-01 5.00000E-01 7.50000E+00
 -3
    3C                             8                                     1
 -1        25    4    0    1
 -2        51       125       252       212        49       129       258       216       124       250
 -2       251       213        50       127       255       214       128       256       257       217
 -1        26    4    0    1
 -2       125        44       154       252       129        46       158       258       126       153
 -2       253       250       127        45       156       255       130       157       259       256
 -1        27    4    0    1
 -2       212       252       183        89       216       258       187        91       251       254
 -2       184       211       214       255       185        90       257       260       188       215
 -1        28    4    0    1
 -2       252       154        74       183       258       158        76       187       253       155
 -2       182       254       255       156        75       185       259       159       186       260
 -1        29    4    0    1
 -2        49       129       258       216         5        22       100        31       128       256
 -2       257       217        48       131       261       218        21        98        99        32
 -1        30    4    0    1
 -2       129        46       158       258        22         6        25       100       130       157
 -2       259       256       131        47       160       261        23        24       101        98
 -1        31    4    0    1
 -2       216       258       187        91        31       100        28         8       257       260
 -2       188       215       218       261       189        92        99       102        29        30
 -1        32    4    0    1
 -2       258       158        76       187       100        25         7        28       259       159
 -2       186       260       261       160        77       189       101        26        27       102
 -3
    1PSTEP                         1           1           1          
  100CL  101 5.00000E-03          81                     1    1           1
 -4  DISP        4    1
 -5  D1          1    2    1    0
 -5  D2          1    2    2    0
 -5  D3          1    2    3    0
 -5  ALL         1    2    0    0    1ALL
 -1         5 0.00000E+00 0.00000E+00 0.00000E+00
 -1         6 0.00000E+00 0.00000E+00 0.00000E+00
 -1         7 0.00000E+00 0.00000E+00 0.00000E+00
 -1         8 0.00000E+00 0.00000E+00 0.00000E+00
 -1        21 0.00000E+00 0.00000E+00 0.00000E+00
 -1        22 0.00000E+00 0.00000E+00 0.00000E+00
 -1        23 0.00000E+00 0.00000E+00 0.00000E+00
 -1        24 0.00000E+00 0.00000E+00 0.00000E+00
 -1        25 0.00000E+00 0.00000E+00 0.00000E+00
 -1        26 0.00000E+00 0.00000E+00 0.00000E+00
 -1        27 0.00000E+00 0.00000E+00 0.00000E+00
 -1        28 0.00000E+00 0.00000E+00 0.00000E+00
 -1        29 0.00000E+00 0.00000E+00 0.00000E+00
 -1        30 0.00000E+00 0.00000E+00 0.00000E+00
 -1        31 0.00000E+00 0.00000E+00 0.00000E+00
 -1        32 0.00000E+00 0.00000E+00 0.00000E+00
 -1        44-6.18211E-05-3.46674E-03 4.48239E-04
 -1        45 5.64939E-05-2.56300E-03 7.85441E-04
 -1        46-4.75276E-05-1.79487E-03 9.49267E-04
 -1        47 1.31129E-04-6.74683E-04 5.43048E-04
 -1        48-1.31151E-04-6.74700E-04 5.43092E-04
 -1        49 4.74184E-05-1.79490E-03 9.49363E-04
 -1        50-5.67075E-05-2.56300E-03 7.85614E-04
 -1        51 6.13334E-05-3.46683E-03 4.48538E-04
 -1        74 3.21651E-04-4.41836E-03-4.94585E-04
 -1        75 1.92649E-04-2.97523E-03-7.84841E-04
 -1        76-1.11494E-04-1.59550E-03-9.49954E-04
 -1        77-2.08406E-04-5.25697E-04-5.58090E-04
 -1        89-3.22141E-04-4.41827E-03-4.94285E-04
 -1        90-1.92863E-04-2.97522E-03-7.84668E-04
 -1        91 1.11383E-04-1.59548E-03-9.49857E-04
 -1        92 2.08383E-04-5.25681E-04-5.58046E-04
 -1        98 0.00000E+00 0.00000E+00 0.00000E+00
 -1        99 0.00000E+00 0.00000E+00 0.00000E+00
 -1       100 0.00000E+00 0.00000E+00 0.00000E+00
 -1       101 0.00000E+00 0.00000E+00 0.00000E+00
 -1       102 0.00000E+00 0.00000E+00 0.00000E+00
 -1       124 1.48709E-04-2.96583E-03 4.29557E-04
 -1       125-1.93962E-07-3.58895E-03 4.48466E-04
 -1       126-1.49138E-04-2.96580E-03 4.29447E-04
 -1       127-1.22065E-07-2.56196E-03 9.03573E-04
 -1       128-8.99649E-06-1.95285E-03 9.48154E-04
 -1       129-3.67111E-08-1.81493E-03 9.41491E-04
 -1       130 8.90667E-06-1.95284E-03 9.48098E-04
 -1       131-7.18244E-09-7.36479E-04 5.56433E-04
 -1       153 7.04832E-05-3.63392E-03 1.90944E-04
 -1       154-1.21076E-04-2.50113E-03-2.10321E-05
 -1       155-6.65493E-05-3.88861E-03-2.38001E-04
 -1       156-1.20914E-04-2.78931E-03-6.49254E-05
 -1       157-2.07702E-05-1.50885E-03 3.92389E-04
 -1       158 8.87130E-05-1.56669E-03-2.95468E-05
 -1       159 4.68755E-05-1.47501E-03-4.11181E-04
 -1       160 3.99470E-05-6.56556E-04 4.88071E-06
 -1       182 1.14170E-04-2.56037E-03-4.71056E-04
 -1       183-1.92966E-07-4.35835E-03-4.76508E-04
 -1       184-1.14599E-04-2.56033E-03-4.70946E-04
 -1       185-1.22895E-07-2.83345E-03-8.73685E-04
 -1       186-4.42164E-05-2.16284E-03-9.82711E-04
 -1       187-3.66492E-08-1.83149E-03-9.63585E-04
 -1       188 4.41260E-05-2.16283E-03-9.82654E-04
 -1       189-7.36834E-09-7.19709E-04-5.64500E-04
 -1       211 6.59889E-05-3.88857E-03-2.37722E-04
 -1       212 1.20467E-04-2.50114E-03-2.07144E-05
 -1       213-7.10422E-05-3.63397E-03 1.91221E-04
 -1       214 1.20719E-04-2.78931E-03-6.47438E-05
 -1       215-4.70020E-05-1.47500E-03-4.11079E-04
 -1       216-8.88544E-05-1.56669E-03-2.94520E-05
 -1       217 2.06443E-05-1.50886E-03 3.92491E-04
 -1       218-3.99743E-05-6.56556E-04 4.91161E-06
 -1       250-1.90225E-07-4.08359E-03 1.74299E-04
 -1       251 3.05179E-05-2.57243E-03-1.04528E-05
 -1       252-1.84827E-07-3.12332E-03-1.62084E-05
 -1       253-3.09945E-05-2.57242E-03-1.05065E-05
 -1       254-1.89822E-07-4.41603E-03-2.54293E-04
 -1       255-1.38142E-07-2.59862E-03-3.20741E-05
 -1       256-3.39626E-08-1.60734E-03 3.95523E-04
 -1       257-4.13850E-05-1.74911E-03-1.19828E-05
 -1       258-2.91187E-08-1.79080E-03-1.45303E-05
 -1       259 4.12867E-05-1.74910E-03-1.20532E-05
 -1       260-3.39017E-08-1.62221E-03-4.18182E-04
 -1       261-1.34226E-08-7.17178E-04-1.99446E-06
 -3
    1PSTEP                         2           2           1          
  100CL  102 1.00000E-02          81                     1    2           1
 -4  DISP        4    1
 -5  D1          1    2    1    0
 -5  D2          1    2    2    0
 -5  D3          1    2    3    0
 -5  ALL         1    2    0    0    1ALL
 -1         5 0.00000E+00 0.00000E+00 0.00000E+00
 -1         6 0.00000E+00 0.00000E+00 0.00000E+00
 -1         7 0.00000E+00 0.00000E+00 0.00000E+00
 -1         8 0.00000E+00 0.00000E+00 0.00000E+00
 -1        21 0.00000E+00 0.00000E+00 0.00000E+00
 -1        22 0.00000E+00 0.00000E+00 0.00000E+00
 -1        23 0.00000E+00 0.00000E+00 0.00000E+00
 -1        24 0.00000E+00 0.00000E+00 0.00000E+00
 -1        25 0.00000E+00 0.00000E+00 0.00000E+00
 -1        26 0.00000E+00 0.00000E+00 0.00000E+00
 -1        27 0.00000E+00 0.00000E+00 0.00000E+00
 -1        28 0.00000E+00 0.00000E+00 0.00000E+00
 -1        29 0.00000E+00 0.00000E+00 0.00000E+00
 -1        30 0.00000E+00 0.00000E+00 0.00000E+00
 -1        31 0.00000E+00 0.00000E+00 0.00000E+00
 -1        32 0.00000E+00 0.00000E+00 0.00000E+00
 -1        44-1.61042E-04 1.59797E-03-2.33892E-04
 -1        45-4.04738E-05 1.24342E-03-3.77254E-04
 -1        46 4.43328E-05 9.17050E-04-4.32152E-04
 -1        47-5.24261E-05 3.71583E-04-2.84042E-04
 -1        48 5.24415E-05 3.71590E-04-2.84074E-04
 -1        49-4.42776E-05 9.17080E-04-4.32219E-04
 -1        50 4.06383E-05 1.24339E-03-3.77303E-04
 -1        51 1.61279E-04 1.59797E-03-2.33981E-04
 -1        74 1.42779E-04 1.61811E-03 2.34241E-04
 -1        75 2.97238E-05 1.25474E-03 3.77340E-04
 -1        76-3.86508E-05 9.11476E-04 4.32279E-04
 -1        77 5.56075E-05 3.68248E-04 2.84161E-04
 -1        89-1.42511E-04 1.61818E-03 2.34131E-04
 -1        90-2.95552E-05 1.25473E-03 3.77254E-04
 -1        91 3.86852E-05 9.11475E-04 4.32217E-04
 -1        92-5.55900E-05 3.68232E-04 2.84116E-04
 -1        98 0.00000E+00 0.00000E+00 0.00000E+00
 -1        99 0.00000E+00 0.00000E+00 0.00000E+00
 -1       100 0.00000E+00 0.00000E+00 0.00000E+00
 -1       101 0.00000E+00 0.00000E+00 0.00000E+00
 -1       102 0.00000E+00 0.00000E+00 0.00000E+00
 -1       124 9.58207E-06 1.48374E-03-2.20548E-04
 -1       125 1.24762E-07 1.76386E-03-2.31280E-04
 -1       126-9.34159E-06 1.48372E-03-2.20476E-04
 -1       127 6.62167E-08 1.30163E-03-4.18417E-04
 -1       128-4.67294E-06 9.58222E-04-4.63477E-04
 -1       129 3.79950E-08 8.89921E-04-4.72775E-04
 -1       130 4.73853E-06 9.58211E-04-4.63453E-04
 -1       131 4.69339E-09 3.75501E-04-2.76047E-04
 -1       153 1.28759E-04 1.91308E-03-1.03836E-04
 -1       154-3.05766E-06 1.69704E-03-6.81771E-08
 -1       155-1.22294E-04 1.92302E-03 1.04201E-04
 -1       156 7.29424E-07 1.40733E-03 1.33486E-06
 -1       157-2.57906E-05 7.94291E-04-1.86034E-04
 -1       158 5.29007E-08 8.09575E-04 5.60829E-07
 -1       159 2.43377E-05 7.91736E-04 1.86047E-04
 -1       160-1.68717E-07 3.07897E-04 4.73415E-08
 -1       182 2.08152E-07 1.47640E-03 2.20753E-04
 -1       183 1.87350E-07 1.77282E-03 2.31674E-04
 -1       184 1.03007E-07 1.47640E-03 2.20677E-04
 -1       185 5.39719E-08 1.30172E-03 4.16260E-04
 -1       186-1.98571E-06 9.60405E-04 4.63776E-04
 -1       187 4.38505E-08 8.89882E-04 4.72078E-04
 -1       188 2.04761E-06 9.60410E-04 4.63751E-04
 -1       189 1.45315E-09 3.75705E-04 2.76004E-04
 -1       211 1.22546E-04 1.92304E-03 1.04056E-04
 -1       212 3.31238E-06 1.69695E-03-1.34131E-07
 -1       213-1.28550E-04 1.91302E-03-1.03914E-04
 -1       214-6.07451E-07 1.40735E-03 1.24981E-06
 -1       215-2.42759E-05 7.91718E-04 1.85996E-04
 -1       216 2.95235E-08 8.09547E-04 4.96339E-07
 -1       217 2.58677E-05 7.94296E-04-1.86099E-04
 -1       218 1.88666E-07 3.07898E-04 2.38836E-08
 -1       250 9.61318E-08 1.91098E-03-1.02937E-04
 -1       251-1.58061E-06 1.20845E-03-1.35008E-07
 -1       252 6.70729E-08 1.54402E-03 2.10704E-08
 -1       253 1.78612E-06 1.20850E-03-1.30253E-07
 -1       254 1.32178E-07 1.90854E-03 1.03591E-04
 -1       255 7.54756E-08 1.37614E-03 1.46695E-07
 -1       256 2.99143E-08 7.82629E-04-2.07296E-04
 -1       257 7.45561E-07 9.14339E-04 1.55986E-08
 -1       258 2.06174E-08 8.11658E-04 8.45169E-08
 -1       259-6.88823E-07 9.14351E-04 5.37638E-08
 -1       260 3.20780E-08 7.84074E-04 2.07474E-04
 -1       261 1.12989E-08 3.48208E-04-2.85427E-09
 -3
    1PSTEP                         3           3           1          
  100CL  103 1.50000E-02          81                     1    3           1
 -4  DISP        4    1
 -5  D1          1    2    1    0
 -5  D2          1    2    2    0
 -5  D3          1    2    3    0
 -5  ALL         1    2    0    0    1ALL
 -1         5 0.00000E+00 0.00000E+00 0.00000E+00
 -1         6 0.00000E+00 0.00000E+00 0.00000E+00
 -1         7 0.00000E+00 0.00000E+00 0.00000E+00
 -1         8 0.00000E+00 0.00000E+00 0.00000E+00
 -1        21 0.00000E+00 0.00000E+00 0.00000E+00
 -1        22 0.00000E+00 0.00000E+00 0.00000E+00
 -1        23 0.00000E+00 0.00000E+00 0.00000E+00
 -1        24 0.00000E+00 0.00000E+00 0.00000E+00
 -1        25 0.00000E+00 0.00000E+00 0.00000E+00
 -1        26 0.00000E+00 0.00000E+00 0.00000E+00
 -1        27 0.00000E+00 0.00000E+00 0.00000E+00
 -1        28 0.00000E+00 0.00000E+00 0.00000E+00
 -1        29 0.00000E+00 0.00000E+00 0.00000E+00
 -1        30 0.00000E+00 0.00000E+00 0.00000E+00
 -1        31 0.00000E+00 0.00000E+00 0.00000E+00
 -1        32 0.00000E+00 0.00000E+00 0.00000E+00
 -1        44 1.28690E-04-1.26559E-03 1.85704E-04
 -1        45 3.19842E-05-9.85181E-04 2.98860E-04
 -1        46-3.52318E-05-7.27513E-04 3.42484E-04
 -1        47 4.15562E-05-2.94780E-04 2.25376E-04
 -1        48-4.15485E-05-2.94773E-04 2.25344E-04
 -1        49 3.52532E-05-7.27497E-04 3.42424E-04
 -1        50-3.18719E-05-9.85188E-04 2.98884E-04
 -1        51-1.28494E-04-1.26580E-03 1.85755E-04
 -1        74-1.17819E-04-1.27477E-03-1.85840E-04
 -1        75-2.59342E-05-9.90622E-04-2.99116E-04
 -1        76 3.22516E-05-7.24859E-04-3.42500E-04
 -1        77-4.32588E-05-2.93246E-04-2.25308E-04
 -1        89 1.17937E-04-1.27454E-03-1.85780E-04
 -1        90 2.60892E-05-9.90622E-04-2.99127E-04
 -1        91-3.22537E-05-7.24843E-04-3.42534E-04
 -1        92 4.32769E-05-2.93258E-04-2.25345E-04
 -1        98 0.00000E+00 0.00000E+00 0.00000E+00
 -1        99 0.00000E+00 0.00000E+00 0.00000E+00
 -1       100 0.00000E+00 0.00000E+00 0.00000E+00
 -1       101 0.00000E+00 0.00000E+00 0.00000E+00
 -1       102 0.00000E+00 0.00000E+00 0.00000E+00
 -1       124-6.04701E-06-1.17611E-03 1.75110E-04
 -1       125 8.85639E-08-1.39894E-03 1.83576E-04
 -1       126 6.20806E-06-1.17605E-03 1.75112E-04
 -1       127 3.66887E-08-1.03244E-03 3.31644E-04
 -1       128 3.39810E-06-7.59505E-04 3.67403E-04
 -1       129 2.54099E-08-7.04823E-04 3.74804E-04
 -1       130-3.35524E-06-7.59502E-04 3.67425E-04
 -1       131 2.72918E-09-2.97598E-04 2.18787E-04
 -1       153-1.02934E-04-1.51881E-03 8.25731E-05
 -1       154 2.62569E-06-1.34764E-03-4.68040E-08
 -1       155 9.88604E-05-1.52435E-03-8.25362E-05
 -1       156 1.86607E-07-1.11557E-03-5.71981E-07
 -1       157 2.06031E-05-6.29659E-04 1.47425E-04
 -1       158-3.69127E-07-6.42003E-04-1.79960E-07
 -1       159-1.96614E-05-6.28186E-04-1.47341E-04
 -1       160-5.48826E-08-2.43983E-04-1.80913E-08
 -1       182-1.08102E-07-1.17330E-03-1.75095E-04
 -1       183 1.57753E-07-1.40144E-03-1.83822E-04
 -1       184 2.98200E-07-1.17326E-03-1.75107E-04
 -1       185 2.44531E-08-1.03142E-03-3.30444E-04
 -1       186 1.86362E-06-7.60168E-04-3.67516E-04
 -1       187 4.93325E-08-7.04988E-04-3.74333E-04
 -1       188-1.80830E-06-7.60146E-04-3.67522E-04
 -1       189 1.81194E-09-2.97874E-04-2.18754E-04
 -1       211-9.88596E-05-1.52424E-03-8.25143E-05
 -1       212-2.67408E-06-1.34772E-03 9.79952E-08
 -1       213 1.02963E-04-1.51898E-03 8.25333E-05
 -1       214-7.78207E-08-1.11557E-03-5.85992E-07
 -1       215 1.96797E-05-6.28189E-04-1.47364E-04
 -1       216 3.92499E-07-6.42012E-04-2.30027E-07
 -1       217-2.05704E-05-6.29649E-04 1.47403E-04
 -1       218 7.57026E-08-2.43979E-04-5.10032E-08
 -1       250 6.29360E-08-1.51228E-03 8.18555E-05
 -1       251 8.49595E-07-9.57712E-04 5.69874E-08
 -1       252 2.46648E-08-1.22418E-03 4.34529E-09
 -1       253-8.31438E-07-9.57673E-04 6.46796E-08
 -1       254 1.04041E-07-1.50958E-03-8.21927E-05
 -1       255 2.21760E-08-1.09138E-03 4.72320E-08
 -1       256 2.81217E-08-6.20518E-04 1.64509E-04
 -1       257-2.59856E-07-7.24997E-04 1.37031E-08
 -1       258 3.31228E-08-6.42783E-04-7.77772E-09
 -1       259 3.00261E-07-7.24993E-04 2.10674E-08
 -1       260 3.92180E-08-6.21444E-04-1.64535E-04
 -1       261 8.70278E-09-2.75853E-04 4.56185E-09
 -3
    1PSTEP                         4           4           1          
  100CL  104 2.00000E-02          81                     1    4           1
 -4  DISP        4    1
 -5  D1          1    2    1    0
 -5  D2          1    2    2    0
 -5  D3          1    2    3    0
 -5  ALL         1    2    0    0    1ALL
 -1         5 0.00000E+00 0.00000E+00 0.00000E+00
 -1         6 0.00000E+00 0.00000E+00 0.00000E+00
 -1         7 0.00000E+00 0.00000E+00 0.00000E+00
 -1         8 0.00000E+00 0.00000E+00 0.00000E+00
 -1        21 0.00000E+00 0.00000E+00 0.00000E+00
 -1        22 0.00000E+00 0.00000E+00 0.00000E+00
 -1        23 0.00000E+00 0.00000E+00 0.00000E+00
 -1        24 0.00000E+00 0.00000E+00 0.00000E+00
 -1        25 0.00000E+00 0.00000E+00 0.00000E+00
 -1        26 0.00000E+00 0.00000E+00 0.00000E+00
 -1        27 0.00000E+00 0.00000E+00 0.00000E+00
 -1        28 0.00000E+00 0.00000E+00 0.00000E+00
 -1        29 0.00000E+00 0.00000E+00 0.00000E+00
 -1        30 0.00000E+00 0.00000E+00 0.00000E+00
 -1        31 0.00000E+00 0.00000E+00 0.00000E+00
 -1        32 0.00000E+00 0.00000E+00 0.00000E+00
 -1        44-1.03246E-04 9.80680E-04-1.44055E-04
 -1        45-2.60913E-05 7.64134E-04-2.32091E-04
 -1        46 2.77317E-05 5.64280E-04-2.65500E-04
 -1        47-3.18719E-05 2.29049E-04-1.74931E-04
 -1        48 3.18650E-05 2.29038E-04-1.74896E-04
 -1        49-2.77278E-05 5.64286E-04-2.65443E-04
 -1        50 2.59844E-05 7.64102E-04-2.32080E-04
 -1        51 1.03169E-04 9.80800E-04-1.44104E-04
 -1        74 9.10086E-05 9.91985E-04 1.44119E-04
 -1        75 1.91817E-05 7.70616E-04 2.32214E-04
 -1        76-2.47982E-05 5.61571E-04 2.65502E-04
 -1        77 3.37841E-05 2.27231E-04 1.74891E-04
 -1        89-9.12035E-05 9.91783E-04 1.44093E-04
 -1        90-1.92714E-05 7.70609E-04 2.32229E-04
 -1        91 2.47664E-05 5.61560E-04 2.65518E-04
 -1        92-3.37990E-05 2.27235E-04 1.74902E-04
 -1        98 0.00000E+00 0.00000E+00 0.00000E+00
 -1        99 0.00000E+00 0.00000E+00 0.00000E+00
 -1       100 0.00000E+00 0.00000E+00 0.00000E+00
 -1       101 0.00000E+00 0.00000E+00 0.00000E+00
 -1       102 0.00000E+00 0.00000E+00 0.00000E+00
 -1       124 9.11477E-06 9.13341E-04-1.35810E-04
 -1       125-9.42831E-08 1.08532E-03-1.42444E-04
 -1       126-9.23258E-06 9.13316E-04-1.35881E-04
 -1       127-1.25127E-08 8.01350E-04-2.57419E-04
 -1       128-3.47261E-06 5.89157E-04-2.85098E-04
 -1       129-2.66428E-08 5.47301E-04-2.91090E-04
 -1       130 3.44407E-06 5.89148E-04-2.85107E-04
 -1       131 2.89681E-10 2.30846E-04-1.69745E-04
 -1       153 8.18405E-05 1.17641E-03-6.41144E-05
 -1       154-2.63765E-06 1.04984E-03-7.80606E-08
 -1       155-7.75469E-05 1.18640E-03 6.40295E-05
 -1       156 9.99147E-09 8.65848E-04 6.69447E-07
 -1       157-1.65720E-05 4.89470E-04-1.14367E-04
 -1       158 4.39750E-07 4.98504E-04 2.41697E-07
 -1       159 1.55854E-05 4.87186E-04 1.14272E-04
 -1       160-1.30926E-08 1.89085E-04 1.14094E-08
 -1       182-1.04084E-06 9.09640E-04 1.35905E-04
 -1       183-8.36982E-08 1.08888E-03 1.42651E-04
 -1       184 8.75904E-07 9.09559E-04 1.35815E-04
 -1       185-5.46762E-08 8.00620E-04 2.55944E-04
 -1       186-1.14402E-06 5.89960E-04 2.85202E-04
 -1       187-1.76183E-08 5.46817E-04 2.90566E-04
 -1       188 1.10670E-06 5.89949E-04 2.85224E-04
 -1       189-4.97051E-09 2.31067E-04 1.69735E-04
 -1       211 7.74360E-05 1.18626E-03 6.40403E-05
 -1       212 2.57240E-06 1.04979E-03-8.76703E-08
 -1       213-8.18939E-05 1.17646E-03-6.40424E-05
 -1       214-9.03040E-08 8.65847E-04 7.02090E-07
 -1       215-1.56224E-05 4.87179E-04 1.14291E-04
 -1       216-4.72323E-07 4.98493E-04 2.79207E-07
 -1       217 1.65530E-05 4.89464E-04-1.14343E-04
 -1       218-5.20268E-10 1.89082E-04 3.52004E-08
 -1       250-7.24077E-08 1.17637E-03-6.34127E-05
 -1       251-2.86335E-06 7.43052E-04-1.17587E-07
 -1       252-3.60843E-08 9.48837E-04-5.73437E-08
 -1       253 2.79017E-06 7.43081E-04-1.44345E-07
 -1       254-6.17703E-08 1.16997E-03 6.37488E-05
 -1       255-2.74181E-08 8.47514E-04-1.27425E-08
 -1       256-2.32229E-08 4.80663E-04-1.27704E-04
 -1       257 6.57910E-07 5.62881E-04-1.02342E-08
 -1       258-2.24586E-08 4.98342E-04 9.48830E-09
 -1       259-6.94860E-07 5.62886E-04-2.22749E-08
 -1       260-2.04210E-08 4.82214E-04 1.27729E-04
 -1       261-5.89889E-09 2.14116E-04 2.26395E-09
 -3
    1PSTEP                         5           5           1          
  100CL  105 2.50000E-02          81                     1    5           1
 -4  DISP        4    1
 -5  D1          1    2    1    0
 -5  D2          1    2    2    0
 -5  D3          1    2    3    0
 -5  ALL         1    2    0    0    1ALL
 -1         5 0.00000E+00 0.00000E+00 0.00000E+00
 -1         6 0.00000E+00 0.00000E+00 0.00000E+00
 -1         7 0.00000E+00 0.00000E+00 0.00000E+00
 -1         8 0.00000E+00 0.00000E+00 0.00000E+00
 -1        21 0.00000E+00 0.00000E+00 0.00000E+00
 -1        22 0.00000E+00 0.00000E+00 0.00000E+00
 -1        23 0.00000E+00 0.00000E+00 0.00000E+00
 -1        24 0.00000E+00 0.00000E+00 0.00000E+00
 -1        25 0.00000E+00 0.00000E+00 0.00000E+00
 -1        26 0.00000E+00 0.00000E+00 0.00000E+00
 -1        27 0.00000E+00 0.00000E+00 0.00000E+00
 -1        28 0.00000E+00 0.00000E+00 0.00000E+00
 -1        29 0.00000E+00 0.00000E+00 0.00000E+00
 -1        30 0.00000E+00 0.00000E+00 0.00000E+00
 -1        31 0.00000E+00 0.00000E+00 0.00000E+00
 -1        32 0.00000E+00 0.00000E+00 0.00000E+00
 -1        44 7.79118E-05-7.40467E-04 1.08811E-04
 -1        45 1.95293E-05-5.76864E-04 1.75372E-04
 -1        46-2.09547E-05-4.26132E-04 2.00373E-04
 -1        47 2.40662E-05-1.72961E-04 1.32079E-04
 -1        48-2.40652E-05-1.72952E-04 1.32050E-04
 -1        49 2.09421E-05-4.26122E-04 2.00337E-04
 -1        50-1.94481E-05-5.76872E-04 1.75386E-04
 -1        51-7.78294E-05-7.40571E-04 1.08816E-04
 -1        74-7.02967E-05-7.47730E-04-1.08800E-04
 -1        75-1.51975E-05-5.81055E-04-1.75365E-04
 -1        76 1.91086E-05-4.24345E-04-2.00392E-04
 -1        77-2.52577E-05-1.71794E-04-1.32070E-04
 -1        89 7.03718E-05-7.47655E-04-1.08809E-04
 -1        90 1.52897E-05-5.81010E-04-1.75356E-04
 -1        91-1.91155E-05-4.24363E-04-2.00406E-04
 -1        92 2.52647E-05-1.71798E-04-1.32087E-04
 -1        98 0.00000E+00 0.00000E+00 0.00000E+00
 -1        99 0.00000E+00 0.00000E+00 0.00000E+00
 -1       100 0.00000E+00 0.00000E+00 0.00000E+00
 -1       101 0.00000E+00 0.00000E+00 0.00000E+00
 -1       102 0.00000E+00 0.00000E+00 0.00000E+00
 -1       124-6.32495E-06-6.89492E-04 1.02533E-04
 -1       125 8.30199E-08-8.19352E-04 1.07699E-04
 -1       126 6.42727E-06-6.89490E-04 1.02602E-04
 -1       127 1.43956E-09-6.05108E-04 1.94178E-04
 -1       128 2.52090E-06-4.44753E-04 2.15245E-04
 -1       129 2.38444E-08-4.13009E-04 2.19755E-04
 -1       130-2.49755E-06-4.44748E-04 2.15246E-04
 -1       131-2.59060E-09-1.74244E-04 1.28129E-04
 -1       153-6.18653E-05-8.89384E-04 4.83944E-05
 -1       154 1.52930E-06-7.93173E-04 4.07553E-08
 -1       155 5.92183E-05-8.95639E-04-4.83989E-05
 -1       156-5.65461E-08-6.53270E-04-4.26532E-07
 -1       157 1.25151E-05-3.69573E-04 8.62936E-05
 -1       158-2.48666E-07-3.76746E-04-1.59778E-07
 -1       159-1.19245E-05-3.68124E-04-8.62325E-05
 -1       160 2.27602E-08-1.42798E-04-1.34442E-08
 -1       182 3.92220E-08-6.87032E-04-1.02607E-04
 -1       183 9.04715E-08-8.21878E-04-1.07722E-04
 -1       184 6.94237E-08-6.87048E-04-1.02627E-04
 -1       185 1.24399E-08-6.04729E-04-1.93276E-04
 -1       186 1.05905E-06-4.45283E-04-2.15304E-04
 -1       187 3.01532E-08-4.12654E-04-2.19431E-04
 -1       188-1.02714E-06-4.45281E-04-2.15304E-04
 -1       189-4.79411E-10-1.74350E-04-1.28117E-04
 -1       211-5.92198E-05-8.95553E-04-4.83759E-05
 -1       212-1.52930E-06-7.93140E-04 1.34946E-07
 -1       213 6.18782E-05-8.89449E-04 4.83526E-05
 -1       214 8.83998E-08-6.53279E-04-4.37130E-07
 -1       215 1.19410E-05-3.68131E-04-8.62465E-05
 -1       216 2.73257E-07-3.76732E-04-1.84771E-07
 -1       217-1.25032E-05-3.69555E-04 8.62837E-05
 -1       218-1.44579E-08-1.42797E-04-2.13017E-08
 -1       250 3.71089E-08-8.86413E-04 4.80046E-05
 -1       251 1.79268E-06-5.61201E-04 1.15210E-07
 -1       252-2.53784E-08-7.15215E-04 2.75610E-08
 -1       253-1.80371E-06-5.61221E-04 7.29419E-08
 -1       254 4.20207E-08-8.82584E-04-4.81004E-05
 -1       255 1.66542E-08-6.39931E-04 2.32017E-09
 -1       256 1.26641E-08-3.62959E-04 9.64410E-05
 -1       257-4.24107E-07-4.24923E-04 2.17662E-09
 -1       258 5.11580E-09-3.76038E-04-5.42894E-09
 -1       259 4.37237E-07-4.24929E-04 1.39716E-08
 -1       260 1.58402E-08-3.63896E-04-9.64754E-05
 -1       261 7.02390E-09-1.61673E-04 1.63473E-09
 -3
    1PSTEP                         6           6           1          
  100CL  106 3.00000E-02          81                     1    6           1
 -4  DISP        4    1
 -5  D1          1    2    1    0
 -5  D2          1    2    2    0
 -5  D3          1    2    3    0
 -5  ALL         1    2    0    0    1ALL
 -1         5 0.00000E+00 0.00000E+00 0.00000E+00
 -1         6 0.00000E+00 0.00000E+00 0.00000E+00
 -1         7 0.00000E+00 0.00000E+00 0.00000E+00
 -1         8 0.00000E+00 0.00000E+00 0.00000E+00
 -1        21 0.00000E+00 0.00000E+00 0.00000E+00
 -1        22 0.00000E+00 0.00000E+00 0.00000E+00
 -1        23 0.00000E+00 0.00000E+00 0.00000E+00
 -1        24 0.00000E+00 0.00000E+00 0.00000E+00
 -1        25 0.00000E+00 0.00000E+00 0.00000E+00
 -1        26 0.00000E+00 0.00000E+00 0.00000E+00
 -1        27 0.00000E+00 0.00000E+00 0.00000E+00
 -1        28 0.00000E+00 0.00000E+00 0.00000E+00
 -1        29 0.00000E+00 0.00000E+00 0.00000E+00
 -1        30 0.00000E+00 0.00000E+00 0.00000E+00
 -1        31 0.00000E+00 0.00000E+00 0.00000E+00
 -1        32 0.00000E+00 0.00000E+00 0.00000E+00
 -1        44-5.37831E-05 5.38211E-04-7.88359E-05
 -1        45-1.29896E-05 4.18889E-04-1.26910E-04
 -1        46 1.48534E-05 3.08899E-04-1.45356E-04
 -1        47-1.77742E-05 1.25126E-04-9.57255E-05