    1C
    1UUSER                                                              
    1UDATE              17.july.2018                                    
    1UTIME              21:48:59                                        
    1UHOST                                                              
    1UPGM               CalculiX                                        
    1UVERSION           Version 2.13                             
    1UCOMPILETIME       jue jun 14 00:40:39 CEST 2018                    
    1UDIR                                                               
    1UDBN                                                               
    1UMAT    1EL                                                        
    2C                            81                                     1
 -1         5 0.00000E+00 0.00000E+00 8.00000E+00
 -1         6 1.00000E+00 0.00000E+00 8.00000E+00
 -1         7 1.00000E+00 1.00000E+00 8.00000E+00
 -1         8 0.00000E+00 1.00000E+00 8.00000E+00
 -1        21 2.50000E-01 0.00000E+00 8.00000E+00
 -1        22 5.00000E-01 0.00000E+00 8.00000E+00
 -1        23 7.50000E-01 0.00000E+00 8.00000E+00
 -1        24 1.00000E+00 2.50000E-01 8.00000E+00
 -1        25 1.00000E+00 5.00000E-01 8.00000E+00
 -1        26 1.00000E+00 7.50000E-01 8.00000E+00
 -1        27 7.50000E-01 1.00000E+00 8.00000E+00
 -1        28 5.00000E-01 1.00000E+00 8.00000E+00
 -1        29 2.50000E-01 1.00000E+00 8.00000E+00
 -1        30 0.00000E+00 7.50000E-01 8.00000E+00
 -1        31 0.00000E+00 5.00000E-01 8.00000E+00
 -1        32 0.00000E+00 2.50000E-01 8.00000E+00
 -1        44 1.00000E+00 0.00000E+00 6.00000E+00
 -1        45 1.00000E+00 0.00000E+00 6.50000E+00
 -1        46 1.00000E+00 0.00000E+00 7.00000E+00
 -1        47 1.00000E+00 0.00000E+00 7.50000E+00
 -1        48 0.00000E+00 0.00000E+00 7.50000E+00
 -1        49 0.00000E+00 0.00000E+00 7.00000E+00
 -1        50 0.00000E+00 0.00000E+00 6.50000E+00
 -1        51 0.00000E+00 0.00000E+00 6.00000E+00
 -1        74 1.00000E+00 1.00000E+00 6.00000E+00
 -1        75 1.00000E+00 1.00000E+00 6.50000E+00
 -1        76 1.00000E+00 1.00000E+00 7.00000E+00
 -1        77 1.00000E+00 1.00000E+00 7.50000E+00
 -1        89 0.00000E+00 1.00000E+00 6.00000E+00
 -1        90 0.00000E+00 1.00000E+00 6.50000E+00
 -1        91 0.00000E+00 1.00000E+00 7.00000E+00
 -1        92 0.00000E+00 1.00000E+00 7.50000E+00
 -1        98 5.00000E-01 2.50000E-01 8.00000E+00
 -1        99 2.50000E-01 5.00000E-01 8.00000E+00
 -1       100 5.00000E-01 5.00000E-01 8.00000E+00
 -1       101 7.50000E-01 5.00000E-01 8.00000E+00
 -1       102 5.00000E-01 7.50000E-01 8.00000E+00
 -1       124 2.50000E-01 0.00000E+00 6.00000E+00
 -1       125 5.00000E-01 0.00000E+00 6.00000E+00
 -1       126 7.50000E-01 0.00000E+00 6.00000E+00
 -1       127 5.00000E-01 0.00000E+00 6.50000E+00
 -1       128 2.50000E-01 0.00000E+00 7.00000E+00
 -1       129 5.00000E-01 0.00000E+00 7.00000E+00
 -1       130 7.50000E-01 0.00000E+00 7.00000E+00
 -1       131 5.00000E-01 0.00000E+00 7.50000E+00
 -1       153 1.00000E+00 2.50000E-01 6.00000E+00
 -1       154 1.00000E+00 5.00000E-01 6.00000E+00
 -1       155 1.00000E+00 7.50000E-01 6.00000E+00
 -1       156 1.00000E+00 5.00000E-01 6.50000E+00
 -1       157 1.00000E+00 2.50000E-01 7.00000E+00
 -1       158 1.00000E+00 5.00000E-01 7.00000E+00
 -1       159 1.00000E+00 7.50000E-01 7.00000E+00
 -1       160 1.00000E+00 5.00000E-01 7.50000E+00
 -1       182 7.50000E-01 1.00000E+00 6.00000E+00
 -1       183 5.00000E-01 1.00000E+00 6.00000E+00
 -1       184 2.50000E-01 1.00000E+00 6.00000E+00
 -1       185 5.00000E-01 1.00000E+00 6.50000E+00
 -1       186 7.50000E-01 1.00000E+00 7.00000E+00
 -1       187 5.00000E-01 1.00000E+00 7.00000E+00
 -1       188 2.50000E-01 1.00000E+00 7.00000E+00
 -1       189 5.00000E-01 1.00000E+00 7.50000E+00
 -1       211 0.00000E+00 7.50000E-01 6.00000E+00
 -1       212 0.00000E+00 5.00000E-01 6.00000E+00
 -1       213 0.00000E+00 2.50000E-01 6.00000E+00
 -1       214 0.00000E+00 5.00000E-01 6.50000E+00
 -1       215 0.00000E+00 7.50000E-01 7.00000E+00
 -1       216 0.00000E+00 5.00000E-01 7.00000E+00
 -1       217 0.00000E+00 2.50000E-01 7.00000E+00
 -1       218 0.00000E+00 5.00000E-01 7.50000E+00
 -1       250 5.00000E-01 2.50000E-01 6.00000E+00
 -1       251 2.50000E-01 5.00000E-01 6.00000E+00
 -1       252 5.00000E-01 5.00000E-01 6.00000E+00
 -1       253 7.50000E-01 5.00000E-01 6.00000E+00
 -1       254 5.00000E-01 7.50000E-01 6.00000E+00
 -1       255 5.00000E-01 5.00000E-01 6.50000E+00
 -1       256 5.00000E-01 2.50000E-01 7.00000E+00
 -1       257 2.50000E-01 5.00000E-01 7.00000E+00
 -1       258 5.00000E-01 5.00000E-01 7.00000E+00
 -1       259 7.50000E-01 5.00000E-01 7.00000E+00
 -1       260 5.00000E-01 7.50000E-01 7.00000E+00
 -1       261 5.00000E-01 5.00000E-01 7.50000E+00
 -3
    3C                             8                                     1
 -1        25    4    0    1
 -2        51       125       252       212        49       129       258       216       124       250
 -2       251       213        50       127       255       214       128       256       257       217
 -1        26    4    0    1
 -2       125        44       154       252       129        46       158       258       126       153
 -2       253       250       127        45       156       255       130       157       259       256
 -1        27    4    0    1
 -2       212       252       183        89       216       258       187        91       251       254
 -2       184       211       214       255       185        90       257       260       188       215
 -1        28    4    0    1
 -2       252       154        74       183       258       158        76       187       253       155
 -2       182       254       255       156        75       185       259       159       186       260
 -1        29    4    0    1
 -2        49       129       258       216         5        22       100        31       128       256
 -2       257       217        48       131       261       218        21        98        99        32
 -1        30    4    0    1
 -2       129        46       158       258        22         6        25       100       130       157
 -2       259       256       131        47       160       261        23        24       101        98
 -1        31    4    0    1
 -2       216       258       187        91        31       100        28         8       257       260
 -2       188       215       218       261       189        92        99       102        29        30
 -1        32    4    0    1
 -2       258       158        76       187       100        25         7        28       259       159
 -2       186       260       261       160        77       189       101        26        27       102
 -3
    1PSTEP                         1           1           1          
  100CL  101 5.00000E-03          81                     1    1           1
 -4  DISP        4    1
 -5  D1          1    2    1    0
 -5  D2          1    2    2    0
 -5  D3          1    2    3    0
 -5  ALL         1    2    0    0    1ALL
 -1         5 0.00000E+00 0.00000E+00 0.00000E+00
 -1         6 0.00000E+00 0.00000E+00 0.00000E+00
 -1         7 0.00000E+00 0.00000E+00 0.00000E+00
 -1         8 0.00000E+00 0.00000E+00 0.00000E+00
 -1        21 0.00000E+00 0.00000E+00 0.00000E+00
 -1        22 0.00000E+00 0.00000E+00 0.00000E+00
 -1        23 0.00000E+00 0.00000E+00 0.00000E+00
 -1        24 0.00000E+00 0.00000E+00 0.00000E+00
 -1        25 0.00000E+00 0.00000E+00 0.00000E+00
 -1        26 0.00000E+00 0.00000E+00 0.00000E+00
 -1        27 0.00000E+00 0.00000E+00 0.00000E+00
 -1        28 0.00000E+00 0.00000E+00 0.00000E+00
 -1        29 0.00000E+00 0.00000E+00 0.00000E+00
 -1        30 0.00000E+00 0.00000E+00 0.00000E+00
 -1        31 0.00000E+00 0.00000E+00 0.00000E+00
 -1        32 0.00000E+00 0.00000E+00 0.00000E+00
 -1        44-6.03881E-05-3.46721E-03 4.48690E-04
 -1        45 5.66984E-05-2.56299E-03 7.86348E-04
 -1        46-4.73117E-05-1.79514E-03 9.49377E-04
 -1        47 1.30997E-04-6.74953E-04 5.43256E-04
 -1        48-1.30965E-04-6.74934E-04 5.43186E-04
 -1        49 4.75211E-05-1.79514E-03 9.49208E-04
 -1        50-5.63689E-05-2.56297E-03 7.86135E-04
 -1        51 6.12199E-05-3.46729E-03 4.48362E-04
 -1        74 3.20526E-04-4.41494E-03-4.94452E-04
 -1        75 1.92125E-04-2.97366E-03-7.85624E-04
 -1        76-1.10875E-04-1.59669E-03-9.49863E-04
 -1        77-2.08000E-04-5.26444E-04-5.58148E-04
 -1        89-3.20044E-04-4.41528E-03-4.94817E-04
 -1        90-1.91810E-04-2.97367E-03-7.85881E-04
 -1        91 1.11028E-04-1.59673E-03-9.49993E-04
 -1        92 2.08048E-04-5.26466E-04-5.58217E-04
 -1        98 0.00000E+00 0.00000E+00 0.00000E+00
 -1        99 0.00000E+00 0.00000E+00 0.00000E+00
 -1       100 0.00000E+00 0.00000E+00 0.00000E+00
 -1       101 0.00000E+00 0.00000E+00 0.00000E+00
 -1       102 0.00000E+00 0.00000E+00 0.00000E+00
 -1       124 1.47888E-04-2.96676E-03 4.29891E-04
 -1       125 2.47541E-07-3.58809E-03 4.48653E-04
 -1       126-1.47199E-04-2.96671E-03 4.29956E-04
 -1       127 2.19968E-07-2.56216E-03 9.03069E-04
 -1       128-8.60690E-06-1.95268E-03 9.48181E-04
 -1       129 4.89130E-08-1.81496E-03 9.41748E-04
 -1       130 8.74919E-06-1.95269E-03 9.48280E-04
 -1       131 1.50452E-08-7.36391E-04 5.56394E-04
 -1       153 7.03218E-05-3.63716E-03 1.91567E-04
 -1       154-1.19784E-04-2.50679E-03-2.08128E-05
 -1       155-6.52323E-05-3.89100E-03-2.38012E-04
 -1       156-1.20166E-04-2.78847E-03-6.45719E-05
 -1       157-2.03425E-05-1.50956E-03 3.92435E-04
 -1       158 8.85568E-05-1.56794E-03-2.93845E-05
 -1       159 4.68041E-05-1.47590E-03-4.11025E-04
 -1       160 3.98474E-05-6.56414E-04 4.90980E-06
 -1       182 1.13660E-04-2.56271E-03-4.71227E-04
 -1       183 3.32255E-07-4.35447E-03-4.76797E-04
 -1       184-1.13044E-04-2.56280E-03-4.71426E-04
 -1       185 1.54956E-07-2.83281E-03-8.73346E-04
 -1       186-4.37471E-05-2.16226E-03-9.82767E-04
 -1       187 7.82417E-08-1.83213E-03-9.63910E-04
 -1       188 4.38870E-05-2.16230E-03-9.82830E-04
 -1       189 8.69448E-09-7.19903E-04-5.64517E-04
 -1       211 6.58550E-05-3.89122E-03-2.38246E-04
 -1       212 1.20601E-04-2.50691E-03-2.11877E-05
 -1       213-6.94799E-05-3.63727E-03 1.91150E-04
 -1       214 1.20477E-04-2.78853E-03-6.48185E-05
 -1       215-4.66117E-05-1.47591E-03-4.11196E-04
 -1       216-8.83427E-05-1.56793E-03-2.95372E-05
 -1       217 2.05563E-05-1.50954E-03 3.92286E-04
 -1       218-3.98041E-05-6.56415E-04 4.85583E-06
 -1       250 2.44852E-07-4.08092E-03 1.74417E-04
 -1       251 3.10219E-05-2.57280E-03-1.06272E-05
 -1       252 2.57804E-07-3.12054E-03-1.59557E-05
 -1       253-3.03285E-05-2.57280E-03-1.05575E-05
 -1       254 2.54441E-07-4.41180E-03-2.54342E-04
 -1       255 2.07706E-07-2.60028E-03-3.20116E-05
 -1       256 5.42486E-08-1.60685E-03 3.95711E-04
 -1       257-4.11509E-05-1.74929E-03-1.20650E-05
 -1       258 5.15112E-08-1.78938E-03-1.45641E-05
 -1       259 4.12970E-05-1.74928E-03-1.19660E-05
 -1       260 7.59284E-08-1.62204E-03-4.18370E-04
 -1       261 2.07064E-08-7.17027E-04-1.99822E-06
 -3
    1PSTEP                         2           2           1          
  100CL  102 1.00000E-02          81                     1    2           1
 -4  DISP        4    1
 -5  D1          1    2    1    0
 -5  D2          1    2    2    0
 -5  D3          1    2    3    0
 -5  ALL         1    2    0    0    1ALL
 -1         5 0.00000E+00 0.00000E+00 0.00000E+00
 -1         6 0.00000E+00 0.00000E+00 0.00000E+00
 -1         7 0.00000E+00 0.00000E+00 0.00000E+00
 -1         8 0.00000E+00 0.00000E+00 0.00000E+00
 -1        21 0.00000E+00 0.00000E+00 0.00000E+00
 -1        22 0.00000E+00 0.00000E+00 0.00000E+00
 -1        23 0.00000E+00 0.00000E+00 0.00000E+00
 -1        24 0.00000E+00 0.00000E+00 0.00000E+00
 -1        25 0.00000E+00 0.00000E+00 0.00000E+00
 -1        26 0.00000E+00 0.00000E+00 0.00000E+00
 -1        27 0.00000E+00 0.00000E+00 0.00000E+00
 -1        28 0.00000E+00 0.00000E+00 0.00000E+00
 -1        29 0.00000E+00 0.00000E+00 0.00000E+00
 -1        30 0.00000E+00 0.00000E+00 0.00000E+00
 -1        31 0.00000E+00 0.00000E+00 0.00000E+00
 -1        32 0.00000E+00 0.00000E+00 0.00000E+00
 -1        44-1.55494E-04 1.60353E-03-2.34063E-04
 -1        45-3.75137E-05 1.24628E-03-3.77459E-04
 -1        46 4.28155E-05 9.15434E-04-4.32138E-04
 -1        47-5.32925E-05 3.70636E-04-2.84042E-04
 -1        48 5.32859E-05 3.70587E-04-2.83991E-04
 -1        49-4.28386E-05 9.15425E-04-4.32107E-04
 -1        50 3.71797E-05 1.24632E-03-3.77344E-04
 -1        51 1.54893E-04 1.60409E-03-2.33968E-04
 -1        74 1.48702E-04 1.61409E-03 2.34173E-04
 -1        75 3.29590E-05 1.25140E-03 3.77346E-04
 -1        76-4.04437E-05 9.12829E-04 4.32114E-04
 -1        77 5.44993E-05 3.68981E-04 2.84068E-04
 -1        89-1.49278E-04 1.61369E-03 2.34317E-04
 -1        90-3.33035E-05 1.25129E-03 3.77479E-04
 -1        91 4.03814E-05 9.12817E-04 4.32121E-04
 -1        92-5.45362E-05 3.69008E-04 2.84112E-04
 -1        98 0.00000E+00 0.00000E+00 0.00000E+00
 -1        99 0.00000E+00 0.00000E+00 0.00000E+00
 -1       100 0.00000E+00 0.00000E+00 0.00000E+00
 -1       101 0.00000E+00 0.00000E+00 0.00000E+00
 -1       102 0.00000E+00 0.00000E+00 0.00000E+00
 -1       124 4.98131E-06 1.48125E-03-2.20558E-04
 -1       125-3.69862E-07 1.76602E-03-2.31438E-04
 -1       126-5.61311E-06 1.48117E-03-2.20522E-04
 -1       127-1.04701E-07 1.30154E-03-4.17542E-04
 -1       128-3.79694E-06 9.58494E-04-4.63373E-04
 -1       129-8.11146E-08 8.89127E-04-4.72360E-04
 -1       130 3.69680E-06 9.58454E-04-4.63397E-04
 -1       131 7.43493E-09 3.75325E-04-2.75941E-04
 -1       153 1.26186E-04 1.91662E-03-1.03920E-04
 -1       154-3.86409E-07 1.69497E-03-2.57612E-09
 -1       155-1.24734E-04 1.92026E-03 1.04168E-04
 -1       156 7.05574E-07 1.40578E-03 5.52052E-07
 -1       157-2.53329E-05 7.93467E-04-1.85983E-04
 -1       158-5.42581E-07 8.10329E-04 2.18345E-07
 -1       159 2.46904E-05 7.92659E-04 1.85934E-04
 -1       160-2.49760E-07 3.08174E-04-1.91184E-08
 -1       182 3.38984E-06 1.47728E-03 2.20721E-04
 -1       183-4.47746E-07 1.77202E-03 2.31648E-04
 -1       184-4.09582E-06 1.47717E-03 2.20732E-04
 -1       185-1.15647E-07 1.30282E-03 4.16714E-04
 -1       186-3.04440E-06 9.59967E-04 4.63611E-04
 -1       187-1.01284E-07 8.89030E-04 4.72252E-04
 -1       188 2.90684E-06 9.59941E-04 4.63619E-04
 -1       189-1.38994E-09 3.75235E-04 2.75954E-04
 -1       211 1.24499E-04 1.91995E-03 1.04139E-04
 -1       212 1.46837E-07 1.69499E-03 1.43111E-07
 -1       213-1.26470E-04 1.91703E-03-1.03881E-04
 -1       214-8.88914E-07 1.40578E-03 7.14359E-07
 -1       215-2.48380E-05 7.92666E-04 1.86050E-04
 -1       216 3.83917E-07 8.10295E-04 3.40563E-07
 -1       217 2.52116E-05 7.93413E-04-1.85878E-04
 -1       218 2.19353E-07 3.08164E-04 8.05598E-09
 -1       250-1.39597E-07 1.90661E-03-1.03082E-04
 -1       251-3.07493E-07 1.20944E-03 6.35305E-08
 -1       252 1.27613E-07 1.54082E-03 3.54757E-08
 -1       253 2.08286E-07 1.20949E-03-9.53155E-08
 -1       254-1.33882E-07 1.90810E-03 1.03618E-04
 -1       255-1.09165E-07 1.37532E-03 1.74576E-07
 -1       256-4.64219E-08 7.83110E-04-2.07308E-04
 -1       257 2.92929E-07 9.13827E-04 7.57301E-08
 -1       258-1.89830E-08 8.11676E-04 7.73834E-08
 -1       259-3.60752E-07 9.13832E-04 3.60930E-08
 -1       260-6.58830E-08 7.83359E-04 2.07429E-04
 -1       261-3.10610E-08 3.48334E-04 1.77724E-08
 -3
    1PSTEP                         3           3           1          
  100CL  103 1.50000E-02          81                     1    3           1
 -4  DISP        4    1
 -5  D1          1    2    1    0
 -5  D2          1    2    2    0
 -5  D3          1    2    3    0
 -5  ALL         1    2    0    0    1ALL
 -1         5 0.00000E+00 0.00000E+00 0.00000E+00
 -1         6 0.00000E+00 0.00000E+00 0.00000E+00
 -1         7 0.00000E+00 0.00000E+00 0.00000E+00
 -1         8 0.00000E+00 0.00000E+00 0.00000E+00
 -1        21 0.00000E+00 0.00000E+00 0.00000E+00
 -1        22 0.00000E+00 0.00000E+00 0.00000E+00
 -1        23 0.00000E+00 0.00000E+00 0.00000E+00
 -1        24 0.00000E+00 0.00000E+00 0.00000E+00
 -1        25 0.00000E+00 0.00000E+00 0.00000E+00
 -1        26 0.00000E+00 0.00000E+00 0.00000E+00
 -1        27 0.00000E+00 0.00000E+00 0.00000E+00
 -1        28 0.00000E+00 0.00000E+00 0.00000E+00
 -1        29 0.00000E+00 0.00000E+00 0.00000E+00
 -1        30 0.00000E+00 0.00000E+00 0.00000E+00
 -1        31 0.00000E+00 0.00000E+00 0.00000E+00
 -1        32 0.00000E+00 0.00000E+00 0.00000E+00
 -1        44 1.25400E-04-1.26969E-03 1.85655E-04
 -1        45 3.01314E-05-9.87281E-04 2.99023E-04
 -1        46-3.40444E-05-7.25560E-04 3.42294E-04
 -1        47 4.21008E-05-2.93930E-04 2.25215E-04
 -1        48-4.20791E-05-2.93896E-04 2.25136E-04
 -1        49 3.41455E-05-7.25515E-04 3.42149E-04
 -1        50-2.97880E-05-9.87275E-04 2.98856E-04
 -1        51-1.24826E-04-1.26976E-03 1.85419E-04
 -1        74-1.18939E-04-1.27488E-03-1.85422E-04
 -1        75-2.66163E-05-9.90342E-04-2.98904E-04
 -1        76 3.26263E-05-7.24073E-04-3.42191E-04
 -1        77-4.29872E-05-2.93055E-04-2.25142E-04
 -1        89 1.19609E-04-1.27480E-03-1.85676E-04
 -1        90 2.69543E-05-9.90306E-04-2.99080E-04
 -1        91-3.24680E-05-7.24078E-04-3.42311E-04
 -1        92 4.30367E-05-2.93067E-04-2.25212E-04
 -1        98 0.00000E+00 0.00000E+00 0.00000E+00
 -1        99 0.00000E+00 0.00000E+00 0.00000E+00
 -1       100 0.00000E+00 0.00000E+00 0.00000E+00
 -1       101 0.00000E+00 0.00000E+00 0.00000E+00
 -1       102 0.00000E+00 0.00000E+00 0.00000E+00
 -1       124-5.54358E-06-1.17392E-03 1.74819E-04
 -1       125 3.04366E-07-1.39966E-03 1.83484E-04
 -1       126 6.14272E-06-1.17397E-03 1.74958E-04
 -1       127 1.34268E-07-1.03170E-03 3.30876E-04
 -1       128 3.24698E-06-7.59438E-04 3.67201E-04
 -1       129 7.78112E-08-7.04533E-04 3.74470E-04
 -1       130-3.12357E-06-7.59444E-04 3.67264E-04
 -1       131 2.28709E-09-2.97429E-04 2.18674E-04
 -1       153-1.01374E-04-1.51890E-03 8.25708E-05
 -1       154 1.57229E-06-1.34689E-03 9.08126E-08
 -1       155 9.98176E-05-1.52227E-03-8.23445E-05
 -1       156 1.69819E-07-1.11469E-03-2.22740E-07
 -1       157 2.04663E-05-6.29044E-04 1.47398E-04
 -1       158-1.02779E-07-6.41909E-04-4.42671E-08
 -1       159-1.98188E-05-6.28165E-04-1.47228E-04
 -1       160 5.02009E-09-2.43910E-04 7.12321E-09
 -1       182-1.86709E-06-1.17231E-03-1.74848E-04
 -1       183 3.63666E-07-1.40132E-03-1.83553E-04
 -1       184 2.57735E-06-1.17225E-03-1.74938E-04
 -1       185 1.70086E-07-1.03128E-03-3.30271E-04
 -1       186 2.36935E-06-7.59833E-04-3.67253E-04
 -1       187 8.30091E-08-7.04533E-04-3.74227E-04
 -1       188-2.21347E-06-7.59841E-04-3.67316E-04
 -1       189 1.25667E-08-2.97547E-04-2.18655E-04
 -1       211-9.92624E-05-1.52220E-03-8.25676E-05
 -1       212-1.00447E-06-1.34690E-03-8.05200E-08
 -1       213 1.01899E-04-1.51899E-03 8.23291E-05
 -1       214 1.10603E-07-1.11468E-03-4.17646E-07
 -1       215 2.00074E-05-6.28164E-04-1.47363E-04
 -1       216 2.88040E-07-6.41889E-04-1.93051E-07
 -1       217-2.03099E-05-6.29001E-04 1.47260E-04
 -1       218 3.73362E-08-2.43898E-04-4.53543E-08
 -1       250 2.32140E-07-1.51198E-03 8.18327E-05
 -1       251 8.96509E-07-9.57535E-04 4.70141E-09
 -1       252 1.42378E-07-1.22230E-03-2.22527E-09
 -1       253-4.20297E-07-9.57576E-04 4.31411E-08
 -1       254 2.19164E-07-1.51037E-03-8.19510E-05
 -1       255 1.73551E-07-1.09063E-03 1.14457E-08
 -1       256 6.15392E-08-6.20182E-04 1.64370E-04
 -1       257-1.25690E-07-7.24545E-04-3.57481E-08
 -1       258 4.52492E-08-6.42578E-04-1.05963E-08
 -1       259 2.46288E-07-7.24546E-04 4.62945E-08
 -1       260 7.33321E-08-6.20706E-04-1.64405E-04
 -1       261 2.39459E-08-2.75855E-04 3.64854E-09
 -3
    1PSTEP                         4           4           1          
  100CL  104 2.00000E-02          81                     1    4           1
 -4  DISP        4    1
 -5  D1          1    2    1    0
 -5  D2          1    2    2    0
 -5  D3          1    2    3    0
 -5  ALL         1    2    0    0    1ALL
 -1         5 0.00000E+00 0.00000E+00 0.00000E+00
 -1         6 0.00000E+00 0.00000E+00 0.00000E+00
 -1         7 0.00000E+00 0.00000E+00 0.00000E+00
 -1         8 0.00000E+00 0.00000E+00 0.00000E+00
 -1        21 0.00000E+00 0.00000E+00 0.00000E+00
 -1        22 0.00000E+00 0.00000E+00 0.00000E+00
 -1        23 0.00000E+00 0.00000E+00 0.00000E+00
 -1        24 0.00000E+00 0.00000E+00 0.00000E+00
 -1        25 0.00000E+00 0.00000E+00 0.00000E+00
 -1        26 0.00000E+00 0.00000E+00 0.00000E+00
 -1        27 0.00000E+00 0.00000E+00 0.00000E+00
 -1        28 0.00000E+00 0.00000E+00 0.00000E+00
 -1        29 0.00000E+00 0.00000E+00 0.00000E+00
 -1        30 0.00000E+00 0.00000E+00 0.00000E+00
 -1        31 0.00000E+00 0.00000E+00 0.00000E+00
 -1        32 0.00000E+00 0.00000E+00 0.00000E+00
 -1        44-9.76629E-05 9.85469E-04-1.44058E-04
 -1        45-2.36006E-05 7.66358E-04-2.32194E-04
 -1        46 2.65786E-05 5.63393E-04-2.65740E-04
 -1        47-3.25980E-05 2.28283E-04-1.74875E-04
 -1        48 3.25902E-05 2.28265E-04-1.74857E-04
 -1        49-2.65858E-05 5.63394E-04-2.65720E-04
 -1        50 2.35031E-05 7.66332E-04-2.32165E-04
 -1        51 9.76845E-05 9.85523E-04-1.44139E-04
 -1        74 9.30322E-05 9.89886E-04 1.44239E-04
 -1        75 2.08368E-05 7.68887E-04 2.32277E-04
 -1        76-2.53966E-05 5.62283E-04 2.65725E-04
 -1        77 3.33311E-05 2.27567E-04 1.74841E-04
 -1        89-9.30131E-05 9.89868E-04 1.44152E-04
 -1        90-2.09729E-05 7.68869E-04 2.32309E-04
 -1        91 2.53600E-05 5.62247E-04 2.65746E-04
 -1        92-3.33644E-05 2.27565E-04 1.74865E-04
 -1        98 0.00000E+00 0.00000E+00 0.00000E+00
 -1        99 0.00000E+00 0.00000E+00 0.00000E+00
 -1       100 0.00000E+00 0.00000E+00 0.00000E+00
 -1       101 0.00000E+00 0.00000E+00 0.00000E+00
 -1       102 0.00000E+00 0.00000E+00 0.00000E+00
 -1       124 4.99106E-06 9.11730E-04-1.35909E-04
 -1       125-5.97951E-08 1.08667E-03-1.42469E-04
 -1       126-5.07158E-06 9.11732E-04-1.35892E-04
 -1       127-2.40909E-08 8.01163E-04-2.56965E-04
 -1       128-2.59606E-06 5.89584E-04-2.85156E-04
 -1       129-2.80760E-08 5.46998E-04-2.90836E-04
 -1       130 2.57175E-06 5.89577E-04-2.85157E-04
 -1       131 5.04153E-10 2.30882E-04-1.69787E-04
 -1       153 7.92632E-05 1.17925E-03-6.40270E-05
 -1       154-1.05530E-06 1.04639E-03-1.89731E-08
 -1       155-7.75169E-05 1.18279E-03 6.41071E-05
 -1       156-3.85923E-08 8.65365E-04 2.54657E-07
 -1       157-1.59205E-05 4.88550E-04-1.14421E-04
 -1       158 1.40604E-07 4.98543E-04 7.42107E-08
 -1       159 1.55055E-05 4.87716E-04 1.14350E-04
 -1       160-2.52834E-09 1.89352E-04 1.51846E-09
 -1       182 1.41388E-06 9.10397E-04 1.35933E-04
 -1       183-1.38163E-07 1.08827E-03 1.42700E-04
 -1       184-1.58022E-06 9.10353E-04 1.35969E-04
 -1       185-3.51283E-08 8.00851E-04 2.56470E-04
 -1       186-1.76572E-06 5.89913E-04 2.85215E-04
 -1       187-5.03278E-08 5.46872E-04 2.90627E-04
 -1       188 1.70595E-06 5.89904E-04 2.85205E-04
 -1       189-7.61593E-09 2.30962E-04 1.69770E-04
 -1       211 7.75249E-05 1.18278E-03 6.40501E-05
 -1       212 9.81214E-07 1.04640E-03 4.93860E-08
 -1       213-7.92742E-05 1.17929E-03-6.40900E-05
 -1       214-4.53892E-08 8.65348E-04 2.92884E-07
 -1       215-1.55585E-05 4.87688E-04 1.14395E-04
 -1       216-1.95023E-07 4.98520E-04 1.11658E-07
 -1       217 1.58864E-05 4.88536E-04-1.14380E-04
 -1       218-1.24101E-08 1.89341E-04 1.98225E-08
 -1       250-4.18755E-08 1.17399E-03-6.35526E-05
 -1       251-9.52748E-07 7.43660E-04 1.34254E-08
 -1       252-2.39255E-08 9.48620E-04 3.82118E-08
 -1       253 8.58765E-07 7.43691E-04-6.23306E-08
 -1       254-5.26243E-08 1.17205E-03 6.37398E-05
 -1       255-3.72580E-08 8.46896E-04-3.74923E-09
 -1       256-2.63246E-08 4.81396E-04-1.27662E-04
 -1       257 2.04328E-07 5.62542E-04 8.33819E-10
 -1       258-2.32475E-08 4.98796E-04 2.85826E-09
 -1       259-2.46313E-07 5.62545E-04-6.55798E-09
 -1       260-4.33328E-08 4.81927E-04 1.27688E-04
 -1       261-8.06007E-09 2.14170E-04-1.89977E-09
 -3
    1PSTEP                         5           5           1          
  100CL  105 2.50000E-02          81                     1    5           1
 -4  DISP        4    1
 -5  D1          1    2    1    0
 -5  D2          1    2    2    0
 -5  D3          1    2    3    0
 -5  ALL         1    2    0    0    1ALL
 -1         5 0.00000E+00 0.00000E+00 0.00000E+00
 -1         6 0.00000E+00 0.00000E+00 0.00000E+00
 -1         7 0.00000E+00 0.00000E+00 0.00000E+00
 -1         8 0.00000E+00 0.00000E+00 0.00000E+00
 -1        21 0.00000E+00 0.00000E+00 0.00000E+00
 -1        22 0.00000E+00 0.00000E+00 0.00000E+00
 -1        23 0.00000E+00 0.00000E+00 0.00000E+00
 -1        24 0.00000E+00 0.00000E+00 0.00000E+00
 -1        25 0.00000E+00 0.00000E+00 0.00000E+00
 -1        26 0.00000E+00 0.00000E+00 0.00000E+00
 -1        27 0.00000E+00 0.00000E+00 0.00000E+00
 -1        28 0.00000E+00 0.00000E+00 0.00000E+00
 -1        29 0.00000E+00 0.00000E+00 0.00000E+00
 -1        30 0.00000E+00 0.00000E+00 0.00000E+00
 -1        31 0.00000E+00 0.00000E+00 0.00000E+00
 -1        32 0.00000E+00 0.00000E+00 0.00000E+00
 -1        44 7.34297E-05-7.43979E-04 1.08710E-04
 -1        45 1.75360E-05-5.78538E-04 1.75148E-04
 -1        46-1.99871E-05-4.24979E-04 2.00431E-04
 -1        47 2.46558E-05-1.72200E-04 1.31927E-04
 -1        48-2.46586E-05-1.72198E-04 1.31925E-04
 -1        49 2.00107E-05-4.24968E-04 2.00412E-04
 -1        50-1.75459E-05-5.78511E-04 1.75133E-04
 -1        51-7.34741E-05-7.43867E-04 1.08710E-04
 -1        74-7.04316E-05-7.46874E-04-1.08715E-04
 -1        75-1.58302E-05-5.80246E-04-1.75137E-04
 -1        76 1.91537E-05-4.24099E-04-2.00413E-04
 -1        77-2.51381E-05-1.71715E-04-1.31922E-04
 -1        89 7.04223E-05-7.46975E-04-1.08714E-04
 -1        90 1.58396E-05-5.80247E-04-1.75161E-04
 -1        91-1.91091E-05-4.24082E-04-2.00424E-04
 -1        92 2.51556E-05-1.71703E-04-1.31926E-04
 -1        98 0.00000E+00 0.00000E+00 0.00000E+00
 -1        99 0.00000E+00 0.00000E+00 0.00000E+00
 -1       100 0.00000E+00 0.00000E+00 0.00000E+00
 -1       101 0.00000E+00 0.00000E+00 0.00000E+00
 -1       102 0.00000E+00 0.00000E+00 0.00000E+00
 -1       124-3.43367E-06-6.87752E-04 1.02459E-04
 -1       125-4.55811E-08-8.20014E-04 1.07507E-04
 -1       126 3.40443E-06-6.87789E-04 1.02473E-04
 -1       127 6.12013E-09-6.04422E-04 1.93795E-04
 -1       128 1.86311E-06-4.44883E-04 2.15121E-04
 -1       129-3.16740E-09-4.12759E-04 2.19390E-04
 -1       130-1.86407E-06-4.44893E-04 2.15127E-04
 -1       131 4.81405E-10-1.74257E-04 1.28108E-04
 -1       153-5.97429E-05-8.90119E-04 4.82935E-05
 -1       154 5.81766E-07-7.89703E-04 1.55302E-08
 -1       155 5.87094E-05-8.91588E-04-4.82926E-05
 -1       156-3.67106E-08-6.53034E-04-1.78160E-07
 -1       157 1.20155E-05-3.68553E-04 8.63060E-05
 -1       158-4.44449E-08-3.76143E-04-6.40212E-08
 -1       159-1.17640E-05-3.68133E-04-8.62707E-05
 -1       160 1.10221E-08-1.42870E-04-6.01401E-09
 -1       182-1.82986E-06-6.86742E-04-1.02458E-04
 -1       183 2.33981E-08-8.21163E-04-1.07543E-04
 -1       184 1.89034E-06-6.86724E-04-1.02459E-04
 -1       185 2.06165E-08-6.04295E-04-1.93448E-04
 -1       186 1.45416E-06-4.45114E-04-2.15146E-04
 -1       187 1.02559E-08-4.12680E-04-2.19252E-04
 -1       188-1.43224E-06-4.45121E-04-2.15150E-04
 -1       189 6.20365E-09-1.74278E-04-1.28090E-04
 -1       211-5.86985E-05-8.91663E-04-4.82835E-05
 -1       212-5.60714E-07-7.89711E-04 1.45685E-08
 -1       213 5.97465E-05-8.90051E-04 4.83150E-05
 -1       214 7.33199E-08-6.53018E-04-1.79541E-07
 -1       215 1.17899E-05-3.68113E-04-8.62849E-05
 -1       216 5.23423E-08-3.76131E-04-7.53825E-08
 -1       217-1.20026E-05-3.68545E-04 8.62873E-05
 -1       218-6.73855E-09-1.42862E-04-1.35621E-08
 -1       250-5.70646E-09-8.85567E-04 4.79429E-05
 -1       251 2.96293E-07-5.61023E-04 1.39703E-08
 -1       252 4.65231E-08-7.15796E-04 6.88376E-09
 -1       253-2.24367E-07-5.61044E-04 2.20031E-08
 -1       254 7.10746E-09-8.85086E-04-4.80033E-05
 -1       255 1.59261E-08-6.38989E-04 9.63669E-09
 -1       256 5.15348E-09-3.63336E-04 9.63025E-05
 -1       257-8.75311E-08-4.24518E-04 4.86942E-09
 -1       258 9.90142E-09-3.76411E-04-2.92626E-09
 -1       259 9.81945E-08-4.24519E-04 6.76847E-09
 -1       260 1.65706E-08-3.63521E-04-9.63127E-05
 -1       261-9.48949E-10-1.61638E-04-2.08706E-09
 -3
    1PSTEP                         6           6           1          
  100CL  106 3.00000E-02          81                     1    6           1
 -4  DISP        4    1
 -5  D1          1    2    1    0
 -5  D2          1    2    2    0
 -5  D3          1    2    3    0
 -5  ALL         1    2    0    0    1ALL
 -1         5 0.00000E+00 0.00000E+00 0.00000E+00
 -1         6 0.00000E+00 0.00000E+00 0.00000E+00
 -1         7 0.00000E+00 0.00000E+00 0.00000E+00
 -1         8 0.00000E+00 0.00000E+00 0.00000E+00
 -1        21 0.00000E+00 0.00000E+00 0.00000E+00
 -1        22 0.00000E+00 0.00000E+00 0.00000E+00
 -1        23 0.00000E+00 0.00000E+00 0.00000E+00
 -1        24 0.00000E+00 0.00000E+00 0.00000E+00
 -1        25 0.00000E+00 0.00000E+00 0.00000E+00
 -1        26 0.00000E+00 0.00000E+00 0.00000E+00
 -1        27 0.00000E+00 0.00000E+00 0.00000E+00
 -1        28 0.00000E+00 0.00000E+00 0.00000E+00
 -1        29 0.00000E+00 0.00000E+00 0.00000E+00
 -1        30 0.00000E+00 0.00000E+00 0.00000E+00
 -1        31 0.00000E+00 0.00000E+00 0.00000E+00
 -1        32 0.00000E+00 0.00000E+00 0.00000E+00
 -1        44-5.36642E-05 5.39343E-04-7.88870E-05
 -1        45-1.30103E-05 4.19447E-04-1.27066E-04
 -1        46 1.45620E-05 3.08342E-04-1.45463E-04
 -1        47-1.78168E-05 1.24948E-04-9.56964E-05