
 displacements (vx,vy,vz) for set NALL and time  0.5000000E-02

         5  0.000000E+00  0.000000E+00  0.000000E+00
         6  0.000000E+00  0.000000E+00  0.000000E+00
         7  0.000000E+00  0.000000E+00  0.000000E+00
         8  0.000000E+00  0.000000E+00  0.000000E+00
        21  0.000000E+00  0.000000E+00  0.000000E+00
        22  0.000000E+00  0.000000E+00  0.000000E+00
        23  0.000000E+00  0.000000E+00  0.000000E+00
        24  0.000000E+00  0.000000E+00  0.000000E+00
        25  0.000000E+00  0.000000E+00  0.000000E+00
        26  0.000000E+00  0.000000E+00  0.000000E+00
        27  0.000000E+00  0.000000E+00  0.000000E+00
        28  0.000000E+00  0.000000E+00  0.000000E+00
        29  0.000000E+00  0.000000E+00  0.000000E+00
        30  0.000000E+00  0.000000E+00  0.000000E+00
        31  0.000000E+00  0.000000E+00  0.000000E+00
        32  0.000000E+00  0.000000E+00  0.000000E+00
        44 -7.710437E-05 -3.498030E-03  4.476854E-04
        45  4.487969E-05 -2.577180E-03  7.861817E-04
        46 -4.140872E-05 -1.787413E-03  9.486549E-04
        47  1.339421E-04 -6.705292E-04  5.430813E-04
        48 -1.339584E-04 -6.705477E-04  5.430909E-04
        49  4.132504E-05 -1.787548E-03  9.487924E-04
        50 -4.495126E-05 -2.577083E-03  7.861865E-04
        51  7.693904E-05 -3.497196E-03  4.476351E-04
        74  3.067398E-04 -4.395531E-03 -4.948303E-04
        75  1.826447E-04 -2.963512E-03 -7.866083E-04
        76 -1.060454E-04 -1.603220E-03 -9.507356E-04
        77 -2.054862E-04 -5.298340E-04 -5.583990E-04
        89 -3.063407E-04 -4.395918E-03 -4.947816E-04
        90 -1.826804E-04 -2.963416E-03 -7.864071E-04
        91  1.059749E-04 -1.603131E-03 -9.505968E-04
        92  2.054431E-04 -5.298613E-04 -5.583986E-04
        98  0.000000E+00  0.000000E+00  0.000000E+00
        99  0.000000E+00  0.000000E+00  0.000000E+00
       100  0.000000E+00  0.000000E+00  0.000000E+00
       101  0.000000E+00  0.000000E+00  0.000000E+00
       102  0.000000E+00  0.000000E+00  0.000000E+00
       124  1.539467E-04 -2.954463E-03  4.285041E-04
       125  2.214345E-07 -3.606060E-03  4.479632E-04
       126 -1.534357E-04 -2.954061E-03  4.284738E-04
       127 -8.604736E-08 -2.566120E-03  9.000935E-04
       128 -1.108150E-05 -1.955507E-03  9.484524E-04
       129  5.408367E-08 -1.811007E-03  9.408618E-04
       130  1.100324E-05 -1.955629E-03  9.483801E-04
       131 -1.607303E-08 -7.349627E-04  5.560110E-04
       153  7.420040E-05 -3.651361E-03  1.902706E-04
       154 -1.205426E-04 -2.506007E-03 -2.174356E-05
       155 -6.149467E-05 -3.883344E-03 -2.386203E-04
       156 -1.158874E-04 -2.787875E-03 -6.299347E-05
       157 -2.117153E-05 -1.506502E-03  3.920119E-04
       158  8.646336E-05 -1.569026E-03 -2.855397E-05
       159  4.583252E-05 -1.479016E-03 -4.113949E-04
       160  3.871849E-05 -6.567948E-04  4.880985E-06
       182  1.072502E-04 -2.571658E-03 -4.718763E-04
       183  1.945477E-07 -4.343910E-03 -4.768371E-04
       184 -1.066695E-04 -2.571096E-03 -4.718500E-04
       185 -1.397858E-08 -2.832746E-03 -8.753970E-04
       186 -4.159234E-05 -2.161028E-03 -9.829766E-04
       187  2.374492E-09 -1.834254E-03 -9.648991E-04
       188  4.151690E-05 -2.161154E-03 -9.829043E-04
       189 -9.917700E-09 -7.205377E-04 -5.648611E-04
       211  6.121427E-05 -3.883194E-03 -2.387114E-04
       212  1.215539E-04 -2.506145E-03 -2.185456E-05
       213 -7.428747E-05 -3.651393E-03  1.903274E-04
       214  1.161772E-04 -2.787920E-03 -6.299903E-05
       215 -4.578881E-05 -1.479030E-03 -4.113477E-04
       216 -8.679192E-05 -1.568960E-03 -2.854685E-05
       217  2.109881E-05 -1.506457E-03  3.920335E-04
       218 -3.887831E-05 -6.567704E-04  4.942754E-06
       250 -1.056181E-08 -4.081936E-03  1.738720E-04
       251  2.624692E-05 -2.573280E-03 -1.135087E-05
       252 -2.435820E-07 -3.118397E-03 -1.722943E-05
       253 -2.653570E-05 -2.573515E-03 -1.150075E-05
       254 -1.193571E-07 -4.410867E-03 -2.543077E-04
       255  3.660688E-09 -2.600521E-03 -3.270612E-05
       256 -2.754773E-08 -1.606335E-03  3.955792E-04
       257 -3.940730E-05 -1.749358E-03 -1.246936E-05
       258 -9.892938E-08 -1.789508E-03 -1.480498E-05
       259  3.927390E-05 -1.749324E-03 -1.239777E-05
       260 -3.409259E-08 -1.622127E-03 -4.186735E-04
       261  1.221806E-09 -7.172666E-04 -1.841276E-06

 forces (fx,fy,fz) for set NALL and time  0.5000000E-02

         5  2.261598E+00 -4.087428E+00 -1.104666E+00
         6 -2.262814E+00 -4.084059E+00 -1.105422E+00
         7  3.449652E+00  1.007861E+00  1.262600E+00
         8 -3.453953E+00  1.013580E+00  1.264015E+00
        21 -2.681372E+00  5.435719E+00 -1.787502E+01
        22 -6.337731E-04 -9.671224E+00 -7.018964E-01
        23  2.680479E+00  5.430365E+00 -1.787447E+01
        24 -4.613943E+00  1.706269E+01 -1.022476E+01
        25  9.116037E-01 -1.150199E+01 -4.326336E-01
        26  2.147346E+00  1.348377E+01  1.049708E+01
        27 -1.800061E+00 -3.542735E-01  1.761784E+01
        28 -1.969473E-03 -1.732045E+00  1.756890E+00
        29  1.801791E+00 -3.615250E-01  1.761698E+01
        30 -2.141244E+00  1.348006E+01  1.049542E+01
        31 -9.247944E-01 -1.149974E+01 -4.282310E-01
        32  4.618956E+00  1.706420E+01 -1.022710E+01
        44  1.703719E+00  5.108452E+01  1.429139E+00
        45 -6.427257E-03 -5.704174E-01  1.671081E-01
        46  4.836236E-03  1.514131E+00 -4.669030E-01
        47 -1.527682E-03 -1.160755E+00  5.417412E-01
        48  1.798150E-03 -1.159432E+00  5.423158E-01
        49 -4.361726E-03  1.514640E+00 -4.670427E-01
        50  4.793473E-03 -5.725906E-01  1.667189E-01
        51 -1.687040E+00  5.111841E+01  1.423591E+00
        74 -7.375114E+00  1.817733E+01 -9.905107E-01
        75  1.295259E-03 -6.480523E-01 -1.426129E-01
        76 -2.181435E-03  1.568384E+00  4.596467E-01
        77  4.315844E-03 -1.169025E+00 -5.394078E-01
        89  7.412331E+00  1.812950E+01 -9.881054E-01
        90 -3.903620E-03 -6.446142E-01 -1.425479E-01
        91  2.559670E-03  1.567856E+00  4.598563E-01
        92 -3.638155E-03 -1.171311E+00 -5.393705E-01
        98  6.290337E-04  3.784921E+01 -1.716771E+01
        99 -1.147199E-01 -7.621532E+00  6.264260E-01
       100 -7.064412E-03 -2.290169E+01 -3.623863E-01
       101  1.279773E-01 -7.618812E+00  6.319785E-01
       102  2.448273E-03  3.536383E+01  1.652425E+01
       124  1.637509E+01  2.090076E+01 -6.087175E-01
       125  7.467264E-03  1.096005E+02  2.954303E+00
       126 -1.637091E+01  2.094191E+01 -6.157177E-01
       127  3.610274E-04 -1.141343E+00  3.261195E-01
       128  4.046570E-03 -2.579668E+00  9.467318E-01
       129 -1.627289E-04  3.028701E+00 -9.310401E-01
       130 -4.473707E-03 -2.578675E+00  9.459210E-01
       131  4.726023E-04 -2.320279E+00  1.081998E+00
       153  1.149002E+01 -1.322511E+02 -2.294617E+00
       154 -3.506695E+00  9.846666E+01  4.328283E-01
       155  4.209717E+00 -1.087686E+02  1.415608E+00
       156 -1.040113E-02 -1.210454E+00 -2.227309E-02
       157 -6.817822E-03 -2.586641E+00  7.018921E-01
       158  4.657021E-03  3.080994E+00  1.017456E-02
       159  5.808555E-04 -2.642300E+00 -7.046694E-01
       160 -5.067642E-04 -2.333346E+00 -2.278952E-03
       182  7.906608E+00  6.453486E+01  4.111338E-01
       183  1.999023E-02  5.300786E+01 -1.402074E+00
       184 -7.919820E+00  6.459065E+01  4.085788E-01
       185  1.204059E-03 -6.832799E+00 -2.785949E-01
       186  2.989215E-03 -8.183137E+00 -9.240999E-01
       187 -4.417579E-04 -2.385643E+00  9.202266E-01
       188 -3.316444E-03 -8.181534E+00 -9.238417E-01
       189  3.442515E-04 -7.874043E+00 -1.073784E+00
       211 -4.265123E+00 -1.087364E+02  1.410034E+00
       212  3.608185E+00  9.845136E+01  4.264876E-01
       213 -1.152877E+01 -1.322735E+02 -2.286819E+00
       214  8.236056E-03 -1.211067E+00 -2.063314E-02
       215 -2.072307E-03 -2.640928E+00 -7.049420E-01
       216 -3.657704E-03  3.080909E+00  9.541399E-03
       217  5.606746E-03 -2.587885E+00  7.020860E-01
       218  7.625866E-05 -2.333050E+00 -3.592091E-03
       250 -3.347631E-03 -2.923648E+02 -5.837694E+00
       251  4.158819E+00  8.835204E+01  5.202122E-01
       252  6.734339E-02  2.056017E+02  1.281811E+00
       253 -4.281113E+00  8.832619E+01  5.080799E-01
       254 -1.987376E-02 -2.694238E+02  1.613752E+00
       255  2.995050E-03 -2.428520E+00 -5.413325E-02
       256  6.965167E-04 -5.173840E+00  1.394876E+00
       257  6.197225E-03 -5.228741E+00 -2.279484E-02
       258 -5.398962E-04  6.167089E+00  2.066053E-02
       259 -5.935607E-03 -5.228534E+00 -2.271745E-02
       260  1.528585E-03 -5.295911E+00 -1.404298E+00
       261 -6.175012E-04 -4.671247E+00 -6.533045E-03

 displacements (vx,vy,vz) for set NALL and time  0.1000000E-01

         5  0.000000E+00  0.000000E+00  0.000000E+00
         6  0.000000E+00  0.000000E+00  0.000000E+00
         7  0.000000E+00  0.000000E+00  0.000000E+00
         8  0.000000E+00  0.000000E+00  0.000000E+00
        21  0.000000E+00  0.000000E+00  0.000000E+00
        22  0.000000E+00  0.000000E+00  0.000000E+00
        23  0.000000E+00  0.000000E+00  0.000000E+00
        24  0.000000E+00  0.000000E+00  0.000000E+00
        25  0.000000E+00  0.000000E+00  0.000000E+00
        26  0.000000E+00  0.000000E+00  0.000000E+00
        27  0.000000E+00  0.000000E+00  0.000000E+00
        28  0.000000E+00  0.000000E+00  0.000000E+00
        29  0.000000E+00  0.000000E+00  0.000000E+00
        30  0.000000E+00  0.000000E+00  0.000000E+00
        31  0.000000E+00  0.000000E+00  0.000000E+00
        32  0.000000E+00  0.000000E+00  0.000000E+00
        44 -1.420135E-04  1.630972E-03 -2.315537E-04
        45 -2.716120E-05  1.259195E-03 -3.773847E-04
        46  3.770149E-05  9.096204E-04 -4.319806E-04
        47 -5.578549E-05  3.669636E-04 -2.840710E-04
        48  5.575822E-05  3.670137E-04 -2.840537E-04
        49 -3.782314E-05  9.097470E-04 -4.319694E-04
        50  2.722017E-05  1.259015E-03 -3.773779E-04
        51  1.421865E-04  1.629975E-03 -2.315628E-04
        74  1.598251E-04  1.598778E-03  2.328883E-04
        75  4.000974E-05  1.244140E-03  3.785049E-04
        76 -4.411990E-05  9.185205E-04  4.330364E-04
        77  5.256080E-05  3.718012E-04  2.843478E-04
        89 -1.600332E-04  1.599404E-03  2.328357E-04
        90 -4.003725E-05  1.244174E-03  3.784676E-04
        91  4.405781E-05  9.183924E-04  4.329743E-04
        92 -5.258631E-05  3.718230E-04  2.843861E-04
        98  0.000000E+00  0.000000E+00  0.000000E+00
        99  0.000000E+00  0.000000E+00  0.000000E+00
       100  0.000000E+00  0.000000E+00  0.000000E+00
       101  0.000000E+00  0.000000E+00  0.000000E+00
       102  0.000000E+00  0.000000E+00  0.000000E+00
       124 -2.226734E-07  1.470029E-03 -2.176600E-04
       125 -1.058329E-07  1.782002E-03 -2.291373E-04
       126 -2.088053E-07  1.469621E-03 -2.176515E-04
       127 -1.685993E-08  1.305620E-03 -4.150043E-04
       128 -1.706750E-06  9.619295E-04 -4.641473E-04
       129 -5.125988E-08  8.864316E-04 -4.723237E-04
       130  1.695141E-06  9.620737E-04 -4.641399E-04
       131 -7.231679E-09  3.740673E-04 -2.756017E-04
       153  1.241661E-04  1.934327E-03 -1.022296E-04
       154 -3.389474E-07  1.699753E-03  9.858720E-07
       155 -1.287943E-04  1.917468E-03  1.037613E-04
       156 -3.221485E-06  1.407384E-03 -6.659285E-07
       157 -2.514479E-05  7.906500E-04 -1.856567E-04
       158  1.286908E-06  8.111700E-04 -4.915712E-07
       159  2.579703E-05  7.952399E-04  1.862413E-04
       160  7.273974E-07  3.081022E-04 -2.978067E-08
       182  1.000232E-05  1.483870E-03  2.194575E-04
       183 -3.133569E-07  1.763868E-03  2.305708E-04
       184 -1.068774E-05  1.483358E-03  2.194813E-04
       185 -3.665748E-08  1.303093E-03  4.183154E-04
       186 -5.042896E-06  9.600333E-04  4.644522E-04
       187 -5.110173E-08  8.919050E-04  4.738040E-04
       188  5.025464E-06  9.601556E-04  4.644109E-04
       189 -5.168783E-09  3.758059E-04  2.762454E-04
       211  1.290223E-04  1.917696E-03  1.037917E-04
       212 -4.068204E-07  1.700141E-03  9.558183E-07
       213 -1.241971E-04  1.934291E-03 -1.022376E-04
       214  2.702268E-06  1.407413E-03 -6.659288E-07
       215 -2.585793E-05  7.952217E-04  1.862555E-04
       216 -9.884565E-07  8.111445E-04 -4.283985E-07
       217  2.515761E-05  7.906454E-04 -1.856116E-04
       218 -6.350985E-07  3.080752E-04 -9.918712E-09
       250 -7.150750E-08  1.909671E-03 -1.015585E-04
       251  4.134956E-06  1.206274E-03  7.361721E-07
       252 -1.229480E-07  1.539703E-03  8.594545E-07
       253 -4.136660E-06  1.206389E-03  7.494045E-07
       254 -6.383630E-08  1.911095E-03  1.030275E-04
       255 -5.396965E-08  1.378183E-03  6.426953E-07
       256 -3.401180E-08  7.820760E-04 -2.074553E-04
       257 -1.403534E-06  9.150078E-04  4.452306E-07
       258 -3.547979E-09  8.106936E-04  3.257860E-07
       259  1.428929E-06  9.149504E-04  3.925419E-07
       260 -5.863668E-08  7.826782E-04  2.079195E-04
       261  4.837644E-09  3.483774E-04 -8.447803E-08

 forces (fx,fy,fz) for set NALL and time  0.1000000E-01

         5 -1.663328E+00  3.433082E-01  9.229593E-01
         6  1.664841E+00  3.397512E-01  9.230273E-01
         7 -1.662903E+00  4.378520E-01 -9.183950E-01
         8  1.665807E+00  4.335691E-01 -9.191684E-01
        21  9.869811E-01 -1.521160E+00  8.934092E+00
        22 -2.524620E-04  5.837494E-01  1.441763E+00
        23 -9.856309E-01 -1.515632E+00  8.934902E+00
        24  1.144529E+00 -5.944005E+00  4.727940E+00
        25 -3.445949E-02  2.468321E+00 -1.740239E-02
        26 -1.169961E+00 -5.988358E+00 -4.719848E+00
        27  1.019782E+00 -1.674113E+00 -8.962892E+00
        28  1.160723E-03  8.078119E-01 -1.401542E+00
        29 -1.019889E+00 -1.666186E+00 -8.963257E+00
        30  1.163278E+00 -5.986953E+00 -4.719025E+00
        31  4.507925E-02  2.466311E+00 -1.913673E-02
        32 -1.149165E+00 -5.944597E+00  4.728362E+00
        44 -6.150060E+00 -1.468600E+01 -7.565884E-01
        45  5.504415E-03  4.881511E-01 -1.430583E-01
        46 -4.146954E-03 -1.296542E+00  3.998524E-01
        47  1.317841E-03  9.941607E-01 -4.639886E-01
        48 -1.549524E-03  9.930276E-01 -4.644808E-01
        49  3.740504E-03 -1.296978E+00  3.999720E-01
        50 -4.104947E-03  4.900126E-01 -1.427249E-01
        51  6.138407E+00 -1.471596E+01 -7.573995E-01
        74  6.175662E+00 -1.554757E+01  7.636517E-01
        75 -1.104160E-03  5.546531E-01  1.220706E-01
        76  1.870183E-03 -1.343011E+00 -3.936313E-01
        77 -3.706569E-03  1.001242E+00  4.619887E-01
        89 -6.201762E+00 -1.550928E+01  7.609213E-01
        90  3.338423E-03  5.517081E-01  1.220150E-01
        91 -2.194163E-03 -1.342559E+00 -3.938108E-01
        92  3.126073E-03  1.003200E+00  4.619568E-01
        98 -2.474679E-04 -1.286976E+01  8.226371E+00
        99 -8.633651E-02  4.016488E+00  1.524641E-02
       100  8.820699E-03  5.320919E+00 -1.282408E-02
       101  7.298302E-02  4.014982E+00  1.346532E-02
       102 -8.563131E-04 -1.302579E+01 -8.253378E+00
       124 -6.176639E+00 -1.802784E+01  4.878729E-01
       125 -2.903425E-04 -2.970966E+01 -1.413957E+00
       126  6.168108E+00 -1.806767E+01  4.876198E-01
       127 -3.092558E-04  9.767378E-01 -2.791740E-01
       128 -3.471868E-03  2.209115E+00 -8.107887E-01
       129  1.393994E-04 -2.593459E+00  7.973341E-01
       130  3.837736E-03  2.208265E+00 -8.100942E-01
       131 -4.048274E-04  1.987261E+00 -9.267054E-01
       153  4.745690E+00  5.203827E+01  1.180648E+00
       154  4.036164E-01 -3.317456E+01 -1.734721E-04
       155 -4.711001E+00  5.248913E+01 -1.186371E+00
       156  8.904202E-03  1.035927E+00  1.906971E-02
       157  5.845708E-03  2.215090E+00 -6.011125E-01
       158 -3.988998E-03 -2.638248E+00 -8.709593E-03
       159 -4.997586E-04  2.262760E+00  6.034839E-01
       160  4.377642E-04  1.998464E+00  1.952135E-03
       182 -6.393604E+00 -1.670942E+01 -4.848825E-01
       183 -1.338394E-02 -3.194874E+01  1.423725E+00
       184  6.391695E+00 -1.676447E+01 -4.816342E-01
       185 -1.031392E-03  1.145899E+00  2.384557E-01
       186 -2.563684E-03  2.302894E+00  7.913960E-01
       187  3.784131E-04 -2.661667E+00 -7.880610E-01
       188  2.843973E-03  2.301521E+00  7.911748E-01
       189 -2.948787E-04  2.038462E+00  9.196669E-01
       211  4.762000E+00  5.247609E+01 -1.182195E+00
       212 -4.884910E-01 -3.315891E+01 -3.445118E-03
       213 -4.712364E+00  5.205137E+01  1.182512E+00
       214 -7.049651E-03  1.036453E+00  1.766497E-02
       215  1.777300E-03  2.261585E+00  6.037175E-01
       216  3.133017E-03 -2.638176E+00 -8.167245E-03
       217 -4.808332E-03  2.216156E+00 -6.012786E-01
       218 -6.900464E-05  1.998210E+00  3.076948E-03
       250  3.172530E-03  1.042427E+02  2.334093E+00
       251  7.968641E-01 -4.799017E+01  1.600020E-02
       252 -6.470532E-02 -6.967345E+01 -9.301445E-03
       253 -6.902247E-01 -4.796931E+01  1.733383E-02
       254  1.588444E-02  1.060793E+02 -2.340041E+00
       255 -2.565545E-03  2.078381E+00  4.635389E-02
       256 -5.966381E-04  4.430653E+00 -1.194589E+00
       257 -5.311473E-03  4.477677E+00  1.951745E-02
       258  4.624883E-04 -5.280864E+00 -1.768580E-02
       259  5.087346E-03  4.477500E+00  1.945116E-02
       260 -1.309374E-03  4.535198E+00  1.202645E+00
       261  5.289422E-04  4.000815E+00  5.595502E-03

 displacements (vx,vy,vz) for set NALL and time  0.1500000E-01

         5  0.000000E+00  0.000000E+00  0.000000E+00
         6  0.000000E+00  0.000000E+00  0.000000E+00
         7  0.000000E+00  0.000000E+00  0.000000E+00
         8  0.000000E+00  0.000000E+00  0.000000E+00
        21  0.000000E+00  0.000000E+00  0.000000E+00
        22  0.000000E+00  0.000000E+00  0.000000E+00
        23  0.000000E+00  0.000000E+00  0.000000E+00
        24  0.000000E+00  0.000000E+00  0.000000E+00
        25  0.000000E+00  0.000000E+00  0.000000E+00
        26  0.000000E+00  0.000000E+00  0.000000E+00
        27  0.000000E+00  0.000000E+00  0.000000E+00
        28  0.000000E+00  0.000000E+00  0.000000E+00
        29  0.000000E+00  0.000000E+00  0.000000E+00
        30  0.000000E+00  0.000000E+00  0.000000E+00
        31  0.000000E+00  0.000000E+00  0.000000E+00
        32  0.000000E+00  0.000000E+00  0.000000E+00
        44  1.212446E-04 -1.287319E-03  1.810744E-04
        45  2.328315E-05 -9.958794E-04  2.992487E-04
        46 -3.140899E-05 -7.238065E-04  3.421529E-04
        47  4.328136E-05 -2.921158E-04  2.255567E-04
        48 -4.322741E-05 -2.921405E-04  2.254750E-04
        49  3.158136E-05 -7.239048E-04  3.420405E-04
        50 -2.302970E-05 -9.957670E-04  2.991671E-04
        51 -1.208577E-04 -1.286810E-03  1.810247E-04
        74 -1.378993E-04 -1.253351E-03 -1.819372E-04
        75 -3.574523E-05 -9.800032E-04 -3.001776E-04
        76  3.798880E-05 -7.329478E-04 -3.430174E-04
        77 -3.999359E-05 -2.972333E-04 -2.256632E-04
        89  1.383538E-04 -1.253782E-03 -1.820081E-04
        90  3.604429E-05 -9.800029E-04 -3.002272E-04
        91 -3.789489E-05 -7.328877E-04 -3.430699E-04
        92  4.003163E-05 -2.972788E-04 -2.257570E-04
        98  0.000000E+00  0.000000E+00  0.000000E+00
        99  0.000000E+00  0.000000E+00  0.000000E+00
       100  0.000000E+00  0.000000E+00  0.000000E+00
       101  0.000000E+00  0.000000E+00  0.000000E+00
       102  0.000000E+00  0.000000E+00  0.000000E+00
       124 -1.276783E-06 -1.164028E-03  1.697489E-04
       125  3.844987E-07 -1.412523E-03  1.794300E-04
       126  2.154760E-06 -1.163638E-03  1.697802E-04
       127  1.240872E-07 -1.036583E-03  3.284059E-04
       128  1.680263E-06 -7.635118E-04  3.685952E-04
       129  1.146430E-07 -7.025861E-04  3.754942E-04
       130 -1.553981E-06 -7.636119E-04  3.686331E-04
       131  1.410514E-08 -2.961519E-04  2.181894E-04
       153 -1.040909E-04 -1.542863E-03  7.986493E-05
       154  1.324653E-06 -1.360165E-03 -7.064949E-07
       155  1.083133E-04 -1.526666E-03 -8.088163E-05
       156  3.714896E-06 -1.116774E-03  1.078091E-06
       157  2.135766E-05 -6.274370E-04  1.469074E-04
       158 -1.623037E-06 -6.444865E-04  6.580164E-07
       159 -2.191707E-05 -6.317045E-04 -1.472331E-04
       160 -8.736599E-07 -2.436729E-04  2.143086E-08
       182 -9.989018E-06 -1.178666E-03 -1.710309E-04
       183  4.701927E-07 -1.391706E-03 -1.803891E-04
       184  1.088201E-05 -1.178312E-03 -1.712270E-04
       185  9.627713E-08 -1.032690E-03 -3.315134E-04
       186  4.762781E-06 -7.607261E-04 -3.687011E-04
       187  1.142488E-07 -7.076425E-04 -3.767281E-04
       188 -4.649310E-06 -7.608273E-04 -3.686901E-04
       189  5.997436E-09 -2.978754E-04 -2.187323E-04
       211 -1.082823E-04 -1.526786E-03 -8.096501E-05
       212 -4.530214E-07 -1.360497E-03 -6.829773E-07
       213  1.044584E-04 -1.543025E-03  7.969357E-05
       214 -3.096245E-06 -1.116842E-03  9.688084E-07
       215  2.206327E-05 -6.317159E-04 -1.473475E-04
       216  1.506480E-06 -6.444616E-04  4.988312E-07
       217 -2.125443E-05 -6.274213E-04  1.467969E-04
       218  8.355075E-07 -2.436592E-04 -3.931864E-08
       250  2.502163E-07 -1.510541E-03  7.937061E-05
       251 -3.845182E-06 -9.497780E-04 -5.318926E-07
       252  1.707428E-07 -1.215670E-03 -5.289183E-07
       253  4.090575E-06 -9.498613E-04 -5.203023E-07
       254  2.098199E-07 -1.509640E-03 -8.010612E-05
       255  1.481900E-07 -1.096712E-03 -3.818330E-07
       256  8.455323E-08 -6.185454E-04  1.649952E-04
       257  1.547428E-06 -7.269731E-04 -3.513825E-07
       258  4.381541E-08 -6.395420E-04 -2.192381E-07
       259 -1.476927E-06 -7.269295E-04 -2.606168E-07
       260  1.020997E-07 -6.191447E-04 -1.652900E-04
       261  1.620758E-08 -2.758845E-04  9.953413E-08

 forces (fx,fy,fz) for set NALL and time  0.1500000E-01

         5  1.338823E+00 -3.010836E-01 -7.287899E-01
         6 -1.340165E+00 -2.980997E-01 -7.282647E-01
         7  1.331380E+00 -4.183363E-01  7.232557E-01
         8 -1.333789E+00 -4.147923E-01  7.233975E-01
        21 -7.812032E-01  1.166980E+00 -7.073198E+00
        22 -3.928353E-04 -4.466761E-01 -1.153631E+00
        23  7.807020E-01  1.162953E+00 -7.074639E+00
        24 -8.781757E-01  4.808661E+00 -3.752546E+00
        25  2.590827E-02 -2.009300E+00  1.816230E-02
        26  9.181388E-01  4.873763E+00  3.742685E+00
        27 -8.180084E-01  1.340226E+00  7.099948E+00
        28 -1.630524E-03 -6.963350E-01  1.110826E+00
        29  8.188823E-01  1.334715E+00  7.101891E+00
        30 -9.126108E-01  4.872268E+00  3.742970E+00
        31 -3.467405E-02 -2.008024E+00  1.884523E-02
        32  8.818701E-01  4.809983E+00 -3.750954E+00
        44  5.086682E+00  1.181662E+01  6.090765E-01
        45 -4.372543E-03 -3.874359E-01  1.136309E-01
        46  3.304200E-03  1.030401E+00 -3.178546E-01
        47 -1.064933E-03 -7.904595E-01  3.689178E-01
        48  1.249199E-03 -7.895583E-01  3.693093E-01
        49 -2.980934E-03  1.030748E+00 -3.179498E-01
        50  3.259499E-03 -3.889164E-01  1.133657E-01
        51 -5.077236E+00  1.184112E+01  6.124750E-01
        74 -5.074488E+00  1.279157E+01 -6.154734E-01
        75  8.670898E-04 -4.403280E-01 -9.693128E-02
        76 -1.489646E-03  1.067355E+00  3.128990E-01
        77  2.965294E-03 -7.960873E-01 -3.673256E-01
        89  5.094968E+00  1.276098E+01 -6.114667E-01
        90 -2.644037E-03 -4.379859E-01 -9.688700E-02
        91  1.747313E-03  1.066996E+00  3.130418E-01
        92 -2.503622E-03 -7.976445E-01 -3.673002E-01
        98  5.757139E-05  1.027314E+01 -6.539389E+00
        99  8.059215E-02 -3.259833E+00 -1.547414E-02
       100 -6.477606E-03 -4.280072E+00  1.282865E-02
       101 -7.029326E-02 -3.258527E+00 -1.608689E-02
       102  5.889552E-04  1.042896E+01  6.566865E+00
       124  4.928955E+00  1.458529E+01 -4.175240E-01
       125  1.685212E-03  2.351324E+01  1.148509E+00
       126 -4.921395E+00  1.461512E+01 -4.159293E-01
       127  2.459439E-04 -7.752168E-01  2.217285E-01
       128  2.770092E-03 -1.755929E+00  6.445466E-01
       129 -1.108618E-04  2.061097E+00 -6.338219E-01
       130 -3.061081E-03 -1.755252E+00  6.439942E-01
       131  3.219709E-04 -1.580066E+00  7.368236E-01
       153 -4.089638E+00 -4.200603E+01 -9.495210E-01
       154 -3.438699E-01  2.672610E+01 -8.957506E-04
       155  3.950454E+00 -4.256683E+01  9.556273E-01
       156 -7.074817E-03 -8.222765E-01 -1.515383E-02
       157 -4.658023E-03 -1.760685E+00  4.778728E-01
       158  3.172516E-03  2.096714E+00  6.918762E-03
       159  4.013606E-04 -1.798589E+00 -4.797480E-01
       160 -3.532013E-04 -1.588995E+00 -1.552579E-03
       182  5.186887E+00  1.314047E+01  4.127019E-01
       183  1.136609E-02  2.585447E+01 -1.155743E+00
       184 -5.184638E+00  1.318263E+01  4.041426E-01
       185  8.202951E-04 -8.891859E-01 -1.893306E-01
       186  2.044360E-03 -1.809926E+00 -6.291137E-01
       187 -3.009602E-04  2.135911E+00  6.264319E-01
       188 -2.267288E-03 -1.808834E+00 -6.289378E-01
       189  2.345158E-04 -1.600199E+00 -7.312220E-01
       211 -3.991366E+00 -4.255187E+01  9.512851E-01
       212  4.080785E-01  2.671420E+01  6.543805E-03
       213  4.062734E+00 -4.202133E+01 -9.564289E-01
       214  5.599837E-03 -8.226943E-01 -1.403662E-02
       215 -1.417422E-03 -1.797654E+00 -4.799337E-01
       216 -2.491726E-03  2.096657E+00  6.487419E-03
       217  3.832970E-03 -1.761532E+00  4.780049E-01
       218  5.991869E-05 -1.588793E+00 -2.447159E-03
       250 -2.510650E-03 -8.300323E+01 -1.876865E+00
       251 -7.472954E-01  3.854902E+01 -1.903123E-02
       252  4.584385E-02  5.564776E+01  8.610208E-03
       253  6.694042E-01  3.853233E+01 -1.713603E-02
       254 -1.319306E-02 -8.476520E+01  1.898516E+00
       255  2.040451E-03 -1.649753E+00 -3.684392E-02
       256  4.745157E-04 -3.521737E+00  9.496628E-01
       257  4.228631E-03 -3.559132E+00 -1.551099E-02
       258 -3.678265E-04  4.196899E+00  1.404935E-02
       259 -4.050380E-03 -3.558992E+00 -1.545828E-02
       260  1.041371E-03 -3.604858E+00 -9.560494E-01
       261 -4.206890E-04 -3.181055E+00 -4.449348E-03

 displacements (vx,vy,vz) for set NALL and time  0.2000000E-01

         5  0.000000E+00  0.000000E+00  0.000000E+00
         6  0.000000E+00  0.000000E+00  0.000000E+00
         7  0.000000E+00  0.000000E+00  0.000000E+00
         8  0.000000E+00  0.000000E+00  0.000000E+00
        21  0.000000E+00  0.000000E+00  0.000000E+00
        22  0.000000E+00  0.000000E+00  0.000000E+00
        23  0.000000E+00  0.000000E+00  0.000000E+00
        24  0.000000E+00  0.000000E+00  0.000000E+00
        25  0.000000E+00  0.000000E+00  0.000000E+00
        26  0.000000E+00  0.000000E+00  0.000000E+00
        27  0.000000E+00  0.000000E+00  0.000000E+00
        28  0.000000E+00  0.000000E+00  0.000000E+00
        29  0.000000E+00  0.000000E+00  0.000000E+00
        30  0.000000E+00  0.000000E+00  0.000000E+00
        31  0.000000E+00  0.000000E+00  0.000000E+00
        32  0.000000E+00  0.000000E+00  0.000000E+00
        44 -9.574717E-05  1.000372E-03 -1.370148E-04
        45 -1.783135E-05  7.738673E-04 -2.324450E-04
        46  2.460009E-05  5.630331E-04 -2.660922E-04
        47 -3.336346E-05  2.268519E-04 -1.751685E-04
        48  3.333768E-05  2.268499E-04 -1.750904E-04
        49 -2.461749E-05  5.630921E-04 -2.660292E-04
        50  1.753553E-05  7.738413E-04 -2.324364E-04
        51  9.548593E-05  1.000213E-03 -1.370133E-04
        74  1.106630E-04  9.732954E-04  1.377229E-04
        75  2.848755E-05  7.608198E-04  2.331979E-04
        76 -3.018893E-05  5.704927E-04  2.667364E-04
        77  3.049550E-05  2.310237E-04  1.752279E-04
        89 -1.112428E-04  9.731479E-04  1.377007E-04
        90 -2.880862E-05  7.607695E-04  2.331722E-04
        91  3.020346E-05  5.704359E-04  2.667467E-04
        92 -3.051861E-05  2.310702E-04  1.753138E-04
        98  0.000000E+00  0.000000E+00  0.000000E+00
        99  0.000000E+00  0.000000E+00  0.000000E+00
       100  0.000000E+00  0.000000E+00  0.000000E+00
       101  0.000000E+00  0.000000E+00  0.000000E+00
       102  0.000000E+00  0.000000E+00  0.000000E+00
       124  2.040510E-06  8.999747E-04 -1.278313E-04
       125 -4.127289E-07  1.097784E-03 -1.360018E-04
       126 -2.748901E-06  8.996944E-04 -1.279326E-04
       127 -5.034923E-08  8.054809E-04 -2.543402E-04
       128 -1.486814E-06  5.949889E-04 -2.871365E-04
       129 -1.190673E-07  5.464456E-04 -2.925235E-04
       130  1.398358E-06  5.950466E-04 -2.871313E-04
       131  4.350761E-09  2.296261E-04 -1.692630E-04
       153  8.245068E-05  1.204377E-03 -6.015100E-05
       154 -3.624229E-07  1.058982E-03  5.967152E-07
       155 -8.659356E-05  1.191564E-03  6.087800E-05
       156 -2.707476E-06  8.683220E-04 -9.390304E-07
       157 -1.703721E-05  4.869514E-04 -1.140040E-04
       158  1.113276E-06  5.011650E-04 -5.449006E-07
       159  1.768927E-05  4.904067E-04  1.142937E-04
       160  6.425139E-07  1.891765E-04 -1.403607E-08
       182  9.668434E-06  9.116695E-04  1.288773E-04
       183 -5.352839E-07  1.081754E-03  1.367300E-04
       184 -1.056238E-05  9.112729E-04  1.289109E-04
       185 -7.807333E-08  8.028514E-04  2.570159E-04
       186 -4.135295E-06  5.927522E-04  2.871759E-04
       187 -1.049006E-07  5.501396E-04  2.935449E-04
       188  4.053572E-06  5.927995E-04  2.871657E-04
       189  6.047640E-09  2.308450E-04  1.696677E-04
       211  8.651266E-05  1.191300E-03  6.102604E-05
       212 -3.816934E-07  1.059199E-03  5.727473E-07
       213 -8.264771E-05  1.204697E-03 -6.007279E-05
       214  2.321055E-06  8.683360E-04 -8.261230E-07
       215 -1.779933E-05  4.904393E-04  1.143420E-04
       216 -1.064195E-06  5.011554E-04 -4.238068E-07
       217  1.697547E-05  4.869135E-04 -1.139223E-04
       218 -6.003616E-07  1.891607E-04  9.745026E-09
       250 -1.788018E-07  1.174838E-03 -5.971989E-05
       251  2.994192E-06  7.308459E-04  4.573518E-07