    1C
    1UUSER                                                              
    1UDATE              17.july.2018                                    
    1UTIME              21:35:13                                        
    1UHOST                                                              
    1UPGM               CalculiX                                        
    1UVERSION           Version 2.13                             
    1UCOMPILETIME       jue jun 14 00:40:39 CEST 2018                    
    1UDIR                                                               
    1UDBN                                                               
    1UMAT    1EL                                                        
    2C                            81                                     1
 -1         5 0.00000E+00 0.00000E+00 8.00000E+00
 -1         6 1.00000E+00 0.00000E+00 8.00000E+00
 -1         7 1.00000E+00 1.00000E+00 8.00000E+00
 -1         8 0.00000E+00 1.00000E+00 8.00000E+00
 -1        21 2.50000E-01 0.00000E+00 8.00000E+00
 -1        22 5.00000E-01 0.00000E+00 8.00000E+00
 -1        23 7.50000E-01 0.00000E+00 8.00000E+00
 -1        24 1.00000E+00 2.50000E-01 8.00000E+00
 -1        25 1.00000E+00 5.00000E-01 8.00000E+00
 -1        26 1.00000E+00 7.50000E-01 8.00000E+00
 -1        27 7.50000E-01 1.00000E+00 8.00000E+00
 -1        28 5.00000E-01 1.00000E+00 8.00000E+00
 -1        29 2.50000E-01 1.00000E+00 8.00000E+00
 -1        30 0.00000E+00 7.50000E-01 8.00000E+00
 -1        31 0.00000E+00 5.00000E-01 8.00000E+00
 -1        32 0.00000E+00 2.50000E-01 8.00000E+00
 -1        44 1.00000E+00 0.00000E+00 6.00000E+00
 -1        45 1.00000E+00 0.00000E+00 6.50000E+00
 -1        46 1.00000E+00 0.00000E+00 7.00000E+00
 -1        47 1.00000E+00 0.00000E+00 7.50000E+00
 -1        48 0.00000E+00 0.00000E+00 7.50000E+00
 -1        49 0.00000E+00 0.00000E+00 7.00000E+00
 -1        50 0.00000E+00 0.00000E+00 6.50000E+00
 -1        51 0.00000E+00 0.00000E+00 6.00000E+00
 -1        74 1.00000E+00 1.00000E+00 6.00000E+00
 -1        75 1.00000E+00 1.00000E+00 6.50000E+00
 -1        76 1.00000E+00 1.00000E+00 7.00000E+00
 -1        77 1.00000E+00 1.00000E+00 7.50000E+00
 -1        89 0.00000E+00 1.00000E+00 6.00000E+00
 -1        90 0.00000E+00 1.00000E+00 6.50000E+00
 -1        91 0.00000E+00 1.00000E+00 7.00000E+00
 -1        92 0.00000E+00 1.00000E+00 7.50000E+00
 -1        98 5.00000E-01 2.50000E-01 8.00000E+00
 -1        99 2.50000E-01 5.00000E-01 8.00000E+00
 -1       100 5.00000E-01 5.00000E-01 8.00000E+00
 -1       101 7.50000E-01 5.00000E-01 8.00000E+00
 -1       102 5.00000E-01 7.50000E-01 8.00000E+00
 -1       124 2.50000E-01 0.00000E+00 6.00000E+00
 -1       125 5.00000E-01 0.00000E+00 6.00000E+00
 -1       126 7.50000E-01 0.00000E+00 6.00000E+00
 -1       127 5.00000E-01 0.00000E+00 6.50000E+00
 -1       128 2.50000E-01 0.00000E+00 7.00000E+00
 -1       129 5.00000E-01 0.00000E+00 7.00000E+00
 -1       130 7.50000E-01 0.00000E+00 7.00000E+00
 -1       131 5.00000E-01 0.00000E+00 7.50000E+00
 -1       153 1.00000E+00 2.50000E-01 6.00000E+00
 -1       154 1.00000E+00 5.00000E-01 6.00000E+00
 -1       155 1.00000E+00 7.50000E-01 6.00000E+00
 -1       156 1.00000E+00 5.00000E-01 6.50000E+00
 -1       157 1.00000E+00 2.50000E-01 7.00000E+00
 -1       158 1.00000E+00 5.00000E-01 7.00000E+00
 -1       159 1.00000E+00 7.50000E-01 7.00000E+00
 -1       160 1.00000E+00 5.00000E-01 7.50000E+00
 -1       182 7.50000E-01 1.00000E+00 6.00000E+00
 -1       183 5.00000E-01 1.00000E+00 6.00000E+00
 -1       184 2.50000E-01 1.00000E+00 6.00000E+00
 -1       185 5.00000E-01 1.00000E+00 6.50000E+00
 -1       186 7.50000E-01 1.00000E+00 7.00000E+00
 -1       187 5.00000E-01 1.00000E+00 7.00000E+00
 -1       188 2.50000E-01 1.00000E+00 7.00000E+00
 -1       189 5.00000E-01 1.00000E+00 7.50000E+00
 -1       211 0.00000E+00 7.50000E-01 6.00000E+00
 -1       212 0.00000E+00 5.00000E-01 6.00000E+00
 -1       213 0.00000E+00 2.50000E-01 6.00000E+00
 -1       214 0.00000E+00 5.00000E-01 6.50000E+00
 -1       215 0.00000E+00 7.50000E-01 7.00000E+00
 -1       216 0.00000E+00 5.00000E-01 7.00000E+00
 -1       217 0.00000E+00 2.50000E-01 7.00000E+00
 -1       218 0.00000E+00 5.00000E-01 7.50000E+00
 -1       250 5.00000E-01 2.50000E-01 6.00000E+00
 -1       251 2.50000E-01 5.00000E-01 6.00000E+00
 -1       252 5.00000E-01 5.00000E-01 6.00000E+00
 -1       253 7.50000E-01 5.00000E-01 6.00000E+00
 -1       254 5.00000E-01 7.50000E-01 6.00000E+00
 -1       255 5.00000E-01 5.00000E-01 6.50000E+00
 -1       256 5.00000E-01 2.50000E-01 7.00000E+00
 -1       257 2.50000E-01 5.00000E-01 7.00000E+00
 -1       258 5.00000E-01 5.00000E-01 7.00000E+00
 -1       259 7.50000E-01 5.00000E-01 7.00000E+00
 -1       260 5.00000E-01 7.50000E-01 7.00000E+00
 -1       261 5.00000E-01 5.00000E-01 7.50000E+00
 -3
    3C                             8                                     1
 -1        25    4    0    1
 -2        51       125       252       212        49       129       258       216       124       250
 -2       251       213        50       127       255       214       128       256       257       217
 -1        26    4    0    1
 -2       125        44       154       252       129        46       158       258       126       153
 -2       253       250       127        45       156       255       130       157       259       256
 -1        27    4    0    1
 -2       212       252       183        89       216       258       187        91       251       254
 -2       184       211       214       255       185        90       257       260       188       215
 -1        28    4    0    1
 -2       252       154        74       183       258       158        76       187       253       155
 -2       182       254       255       156        75       185       259       159       186       260
 -1        29    4    0    1
 -2        49       129       258       216         5        22       100        31       128       256
 -2       257       217        48       131       261       218        21        98        99        32
 -1        30    4    0    1
 -2       129        46       158       258        22         6        25       100       130       157
 -2       259       256       131        47       160       261        23        24       101        98
 -1        31    4    0    1
 -2       216       258       187        91        31       100        28         8       257       260
 -2       188       215       218       261       189        92        99       102        29        30
 -1        32    4    0    1
 -2       258       158        76       187       100        25         7        28       259       159
 -2       186       260       261       160        77       189       101        26        27       102
 -3
    1PSTEP                         1           1           1          
  100CL  101 5.00000E-03          81                     1    1           1
 -4  DISP        4    1
 -5  D1          1    2    1    0
 -5  D2          1    2    2    0
 -5  D3          1    2    3    0
 -5  ALL         1    2    0    0    1ALL
 -1         5 0.00000E+00 0.00000E+00 0.00000E+00
 -1         6 0.00000E+00 0.00000E+00 0.00000E+00
 -1         7 0.00000E+00 0.00000E+00 0.00000E+00
 -1         8 0.00000E+00 0.00000E+00 0.00000E+00
 -1        21 0.00000E+00 0.00000E+00 0.00000E+00
 -1        22 0.00000E+00 0.00000E+00 0.00000E+00
 -1        23 0.00000E+00 0.00000E+00 0.00000E+00
 -1        24 0.00000E+00 0.00000E+00 0.00000E+00
 -1        25 0.00000E+00 0.00000E+00 0.00000E+00
 -1        26 0.00000E+00 0.00000E+00 0.00000E+00
 -1        27 0.00000E+00 0.00000E+00 0.00000E+00
 -1        28 0.00000E+00 0.00000E+00 0.00000E+00
 -1        29 0.00000E+00 0.00000E+00 0.00000E+00
 -1        30 0.00000E+00 0.00000E+00 0.00000E+00
 -1        31 0.00000E+00 0.00000E+00 0.00000E+00
 -1        32 0.00000E+00 0.00000E+00 0.00000E+00
 -1        44-5.89857E-05-3.46418E-03 4.48767E-04
 -1        45 5.69560E-05-2.56155E-03 7.85396E-04
 -1        46-4.79083E-05-1.79633E-03 9.49072E-04
 -1        47 1.30946E-04-6.75241E-04 5.43273E-04
 -1        48-1.30921E-04-6.75222E-04 5.43224E-04
 -1        49 4.80378E-05-1.79630E-03 9.48962E-04
 -1        50-5.67125E-05-2.56154E-03 7.85193E-04
 -1        51 5.95719E-05-3.46407E-03 4.48410E-04
 -1        74 3.16328E-04-4.40643E-03-4.94241E-04
 -1        75 1.89619E-04-2.96955E-03-7.84442E-04
 -1        76-1.09260E-04-1.59934E-03-9.49985E-04
 -1        77-2.07375E-04-5.27553E-04-5.58293E-04
 -1        89-3.15743E-04-4.40653E-03-4.94589E-04
 -1        90-1.89375E-04-2.96955E-03-7.84641E-04
 -1        91 1.09388E-04-1.59936E-03-9.50095E-04
 -1        92 2.07400E-04-5.27572E-04-5.58342E-04
 -1        98 0.00000E+00 0.00000E+00 0.00000E+00
 -1        99 0.00000E+00 0.00000E+00 0.00000E+00
 -1       100 0.00000E+00 0.00000E+00 0.00000E+00
 -1       101 0.00000E+00 0.00000E+00 0.00000E+00
 -1       102 0.00000E+00 0.00000E+00 0.00000E+00
 -1       124 1.50814E-04-2.96623E-03 4.29511E-04
 -1       125 2.24316E-07-3.58962E-03 4.48882E-04
 -1       126-1.50305E-04-2.96626E-03 4.29633E-04
 -1       127 1.42714E-07-2.56304E-03 9.03543E-04
 -1       128-9.29891E-06-1.95273E-03 9.48116E-04
 -1       129 4.14219E-08-1.81407E-03 9.41529E-04
 -1       130 9.40263E-06-1.95274E-03 9.48183E-04
 -1       131 8.55138E-09-7.36363E-04 5.56311E-04
 -1       153 6.95388E-05-3.63752E-03 1.91258E-04
 -1       154-1.19653E-04-2.50436E-03-2.06181E-05
 -1       155-6.38332E-05-3.88898E-03-2.37943E-04
 -1       156-1.19601E-04-2.78942E-03-6.43118E-05
 -1       157-2.04398E-05-1.50903E-03 3.92314E-04
 -1       158 8.82425E-05-1.56716E-03-2.92488E-05
 -1       159 4.67048E-05-1.47597E-03-4.10928E-04
 -1       160 3.96811E-05-6.56478E-04 4.89982E-06
 -1       182 1.15596E-04-2.56465E-03-4.71194E-04
 -1       183 2.23637E-07-4.35263E-03-4.76246E-04
 -1       184-1.15089E-04-2.56468E-03-4.71314E-04
 -1       185 1.43222E-07-2.83289E-03-8.74390E-04
 -1       186-4.40055E-05-2.16180E-03-9.82562E-04
 -1       187 4.10701E-08-1.83197E-03-9.63778E-04
 -1       188 4.41089E-05-2.16182E-03-9.82629E-04
 -1       189 8.53650E-09-7.20128E-04-5.64469E-04
 -1       211 6.44808E-05-3.88902E-03-2.38268E-04
 -1       212 1.20362E-04-2.50436E-03-2.09806E-05
 -1       213-6.88857E-05-3.63747E-03 1.90932E-04
 -1       214 1.19835E-04-2.78942E-03-6.45212E-05
 -1       215-4.65582E-05-1.47599E-03-4.11046E-04
 -1       216-8.80853E-05-1.56716E-03-2.93593E-05
 -1       217 2.05857E-05-1.50902E-03 3.92195E-04
 -1       218-3.96511E-05-6.56478E-04 4.86348E-06
 -1       250 2.20929E-07-4.07981E-03 1.74623E-04
 -1       251 3.03895E-05-2.57182E-03-1.06038E-05
 -1       252 2.13317E-07-3.12379E-03-1.65833E-05
 -1       253-2.98423E-05-2.57182E-03-1.05404E-05
 -1       254 2.19368E-07-4.41057E-03-2.54009E-04
 -1       255 1.58962E-07-2.59965E-03-3.20858E-05
 -1       256 3.85331E-08-1.60753E-03 3.95692E-04
 -1       257-4.09269E-05-1.74949E-03-1.20812E-05
 -1       258 3.39064E-08-1.78996E-03-1.44941E-05
 -1       259 4.10390E-05-1.74949E-03-1.19998E-05
 -1       260 3.86273E-08-1.62275E-03-4.18423E-04
 -1       261 1.53408E-08-7.16957E-04-1.92371E-06
 -3
    1PSTEP                         2           2           1          
  100CL  102 1.00000E-02          81                     1    2           1
 -4  DISP        4    1
 -5  D1          1    2    1    0
 -5  D2          1    2    2    0
 -5  D3          1    2    3    0
 -5  ALL         1    2    0    0    1ALL
 -1         5 0.00000E+00 0.00000E+00 0.00000E+00
 -1         6 0.00000E+00 0.00000E+00 0.00000E+00
 -1         7 0.00000E+00 0.00000E+00 0.00000E+00
 -1         8 0.00000E+00 0.00000E+00 0.00000E+00
 -1        21 0.00000E+00 0.00000E+00 0.00000E+00
 -1        22 0.00000E+00 0.00000E+00 0.00000E+00
 -1        23 0.00000E+00 0.00000E+00 0.00000E+00
 -1        24 0.00000E+00 0.00000E+00 0.00000E+00
 -1        25 0.00000E+00 0.00000E+00 0.00000E+00
 -1        26 0.00000E+00 0.00000E+00 0.00000E+00
 -1        27 0.00000E+00 0.00000E+00 0.00000E+00
 -1        28 0.00000E+00 0.00000E+00 0.00000E+00
 -1        29 0.00000E+00 0.00000E+00 0.00000E+00
 -1        30 0.00000E+00 0.00000E+00 0.00000E+00
 -1        31 0.00000E+00 0.00000E+00 0.00000E+00
 -1        32 0.00000E+00 0.00000E+00 0.00000E+00
 -1        44-1.51854E-04 1.60815E-03-2.33951E-04
 -1        45-3.54588E-05 1.24874E-03-3.77301E-04
 -1        46 4.19920E-05 9.14712E-04-4.32269E-04
 -1        47-5.38950E-05 3.70025E-04-2.84044E-04
 -1        48 5.38966E-05 3.70026E-04-2.84061E-04
 -1        49-4.20092E-05 9.14679E-04-4.32269E-04
 -1        50 3.54960E-05 1.24873E-03-3.77293E-04
 -1        51 1.52033E-04 1.60789E-03-2.33978E-04
 -1        74 1.50079E-04 1.61276E-03 2.34126E-04
 -1        75 3.39668E-05 1.25095E-03 3.77133E-04
 -1        76-4.06496E-05 9.13225E-04 4.32350E-04
 -1        77 5.43886E-05 3.69219E-04 2.84172E-04
 -1        89-1.50217E-04 1.61272E-03 2.34174E-04
 -1        90-3.39526E-05 1.25101E-03 3.77193E-04
 -1        91 4.05933E-05 9.13166E-04 4.32361E-04
 -1        92-5.44024E-05 3.69213E-04 2.84176E-04
 -1        98 0.00000E+00 0.00000E+00 0.00000E+00
 -1        99 0.00000E+00 0.00000E+00 0.00000E+00
 -1       100 0.00000E+00 0.00000E+00 0.00000E+00
 -1       101 0.00000E+00 0.00000E+00 0.00000E+00
 -1       102 0.00000E+00 0.00000E+00 0.00000E+00
 -1       124 2.52442E-06 1.48008E-03-2.20431E-04
 -1       125 1.00083E-07 1.76867E-03-2.31388E-04
 -1       126-2.37097E-06 1.48015E-03-2.20426E-04
 -1       127-5.39206E-10 1.30205E-03-4.17537E-04
 -1       128-3.04332E-06 9.59091E-04-4.63574E-04
 -1       129 1.15301E-08 8.89042E-04-4.72361E-04
 -1       130 3.05448E-06 9.59120E-04-4.63573E-04
 -1       131-2.39179E-09 3.75406E-04-2.76018E-04
 -1       153 1.25307E-04 1.91976E-03-1.03752E-04
 -1       154 3.34035E-07 1.69465E-03-6.97017E-08
 -1       155-1.25170E-04 1.91766E-03 1.04082E-04
 -1       156 5.71160E-07 1.40704E-03 3.35296E-07
 -1       157-2.50776E-05 7.92636E-04-1.86014E-04
 -1       158-5.50361E-07 8.09798E-04 1.78506E-07
 -1       159 2.48700E-05 7.93001E-04 1.86089E-04
 -1       160-1.77539E-07 3.08138E-04-5.10525E-09
 -1       182 5.47853E-06 1.47807E-03 2.20746E-04
 -1       183-1.01032E-08 1.77246E-03 2.31462E-04
 -1       184-5.57282E-06 1.47799E-03 2.20718E-04
 -1       185-3.18638E-08 1.30320E-03 4.17304E-04
 -1       186-3.33313E-06 9.60192E-04 4.63742E-04
 -1       187 7.68151E-09 8.89525E-04 4.72454E-04
 -1       188 3.31838E-06 9.60176E-04 4.63761E-04
 -1       189-8.62627E-09 3.75337E-04 2.76050E-04
 -1       211 1.25025E-04 1.91771E-03 1.04214E-04
 -1       212-3.71108E-07 1.69474E-03 3.50761E-09
 -1       213-1.25238E-04 1.91964E-03-1.03863E-04
 -1       214-6.20825E-07 1.40695E-03 3.41850E-07
 -1       215-2.48817E-05 7.92983E-04 1.86084E-04
 -1       216 5.63654E-07 8.09836E-04 1.80166E-07
 -1       217 2.50763E-05 7.92644E-04-1.85988E-04
 -1       218 1.73684E-07 3.08126E-04 6.02912E-09
 -1       250 9.99072E-09 1.90770E-03-1.03124E-04
 -1       251 1.43715E-06 1.20926E-03 4.51237E-10
 -1       252-9.46773E-08 1.54351E-03 5.67079E-08
 -1       253-1.53044E-06 1.20920E-03-6.23383E-08
 -1       254-4.35958E-08 1.91225E-03 1.03412E-04
 -1       255-4.60642E-09 1.37559E-03 2.03417E-07
 -1       256-5.30492E-09 7.83631E-04-2.07335E-04
 -1       257-8.60734E-08 9.14188E-04 7.36435E-08
 -1       258-1.85687E-08 8.12145E-04 8.20592E-08
 -1       259 6.83741E-08 9.14173E-04 7.91976E-08
 -1       260-7.52829E-09 7.83256E-04 2.07478E-04
 -1       261 4.20867E-09 3.48353E-04-2.70987E-10
 -3
    1PSTEP                         3           3           1          
  100CL  103 1.50000E-02          81                     1    3           1
 -4  DISP        4    1
 -5  D1          1    2    1    0
 -5  D2          1    2    2    0
 -5  D3          1    2    3    0
 -5  ALL         1    2    0    0    1ALL
 -1         5 0.00000E+00 0.00000E+00 0.00000E+00
 -1         6 0.00000E+00 0.00000E+00 0.00000E+00
 -1         7 0.00000E+00 0.00000E+00 0.00000E+00
 -1         8 0.00000E+00 0.00000E+00 0.00000E+00
 -1        21 0.00000E+00 0.00000E+00 0.00000E+00
 -1        22 0.00000E+00 0.00000E+00 0.00000E+00
 -1        23 0.00000E+00 0.00000E+00 0.00000E+00
 -1        24 0.00000E+00 0.00000E+00 0.00000E+00
 -1        25 0.00000E+00 0.00000E+00 0.00000E+00
 -1        26 0.00000E+00 0.00000E+00 0.00000E+00
 -1        27 0.00000E+00 0.00000E+00 0.00000E+00
 -1        28 0.00000E+00 0.00000E+00 0.00000E+00
 -1        29 0.00000E+00 0.00000E+00 0.00000E+00
 -1        30 0.00000E+00 0.00000E+00 0.00000E+00
 -1        31 0.00000E+00 0.00000E+00 0.00000E+00
 -1        32 0.00000E+00 0.00000E+00 0.00000E+00
 -1        44 1.24610E-04-1.27228E-03 1.85391E-04
 -1        45 2.92218E-05-9.89290E-04 2.98884E-04
 -1        46-3.36483E-05-7.24415E-04 3.42116E-04
 -1        47 4.23568E-05-2.93543E-04 2.25235E-04
 -1        48-4.23453E-05-2.93542E-04 2.25211E-04
 -1        49 3.36361E-05-7.24401E-04 3.42085E-04
 -1        50-2.91184E-05-9.89329E-04 2.98927E-04
 -1        51-1.24645E-04-1.27232E-03 1.85478E-04
 -1        74-1.21829E-04-1.27479E-03-1.85506E-04
 -1        75-2.75814E-05-9.90823E-04-2.98982E-04
 -1        76 3.28624E-05-7.23654E-04-3.42066E-04
 -1        77-4.28055E-05-2.93114E-04-2.25194E-04
 -1        89 1.21886E-04-1.27472E-03-1.85469E-04
 -1        90 2.76722E-05-9.90839E-04-2.98952E-04
 -1        91-3.28845E-05-7.23663E-04-3.42138E-04
 -1        92 4.28097E-05-2.93119E-04-2.25239E-04
 -1        98 0.00000E+00 0.00000E+00 0.00000E+00
 -1        99 0.00000E+00 0.00000E+00 0.00000E+00
 -1       100 0.00000E+00 0.00000E+00 0.00000E+00
 -1       101 0.00000E+00 0.00000E+00 0.00000E+00
 -1       102 0.00000E+00 0.00000E+00 0.00000E+00
 -1       124-6.22678E-06-1.17329E-03 1.74817E-04
 -1       125 6.42281E-08-1.40129E-03 1.83308E-04
 -1       126 6.27120E-06-1.17330E-03 1.74836E-04
 -1       127 1.07442E-08-1.03182E-03 3.30752E-04
 -1       128 3.14593E-06-7.59695E-04 3.67329E-04
 -1       129 3.33834E-08-7.04813E-04 3.74626E-04
 -1       130-3.11616E-06-7.59697E-04 3.67326E-04
 -1       131 6.50596E-10-2.97445E-04 2.18704E-04
 -1       153-1.02195E-04-1.51975E-03 8.24078E-05
 -1       154 6.51567E-07-1.34982E-03-6.78315E-08
 -1       155 1.01147E-04-1.52116E-03-8.23747E-05
 -1       156 3.03245E-08-1.11555E-03-1.96962E-07
 -1       157 2.06703E-05-6.28876E-04 1.47366E-04
 -1       158-6.56763E-08-6.41727E-04-3.81325E-08
 -1       159-2.04132E-05-6.28488E-04-1.47336E-04
 -1       160-4.69134E-09-2.43642E-04 3.62096E-09
 -1       182-4.68259E-06-1.17248E-03-1.74768E-04
 -1       183 9.27466E-08-1.40216E-03-1.83454E-04
 -1       184 4.79135E-06-1.17248E-03-1.74880E-04
 -1       185-7.35521E-09-1.03159E-03-3.30466E-04
 -1       186 2.74830E-06-7.59913E-04-3.67360E-04
 -1       187 2.71995E-08-7.04885E-04-3.74502E-04
 -1       188-2.72861E-06-7.59913E-04-3.67369E-04
 -1       189-2.54592E-09-2.97516E-04-2.18695E-04
 -1       211-1.01105E-04-1.52112E-03-8.25081E-05
 -1       212-5.85156E-07-1.34987E-03 4.78231E-08
 -1       213 1.02174E-04-1.51982E-03 8.24657E-05
 -1       214-1.48401E-09-1.11552E-03-2.02225E-07
 -1       215 2.04234E-05-6.28507E-04-1.47337E-04
 -1       216 9.84332E-08-6.41750E-04-6.38197E-08
 -1       217-2.06529E-05-6.28878E-04 1.47352E-04
 -1       218 1.13637E-08-2.43644E-04-7.14345E-09
 -1       250 3.73999E-08-1.51412E-03 8.16684E-05
 -1       251 2.87257E-07-9.57324E-04 6.69588E-08
 -1       252-2.44051E-09-1.22268E-03-6.63398E-08
 -1       253-2.55413E-07-9.57292E-04-3.23535E-08
 -1       254 5.32978E-08-1.51357E-03-8.18768E-05
 -1       255 2.48090E-08-1.09107E-03 6.79263E-09
 -1       256 1.83437E-08-6.20033E-04 1.64411E-04
 -1       257-7.73608E-08-7.24949E-04-1.64403E-08
 -1       258 4.40680E-09-6.42603E-04-4.59550E-09
 -1       259 9.66764E-08-7.24939E-04 6.45337E-09
 -1       260 1.42604E-08-6.20278E-04-1.64419E-04
 -1       261 6.24577E-09-2.75951E-04 2.44099E-09
 -3
    1PSTEP                         4           4           1          
  100CL  104 2.00000E-02          81                     1    4           1
 -4  DISP        4    1
 -5  D1          1    2    1    0
 -5  D2          1    2    2    0
 -5  D3          1    2    3    0
 -5  ALL         1    2    0    0    1ALL
 -1         5 0.00000E+00 0.00000E+00 0.00000E+00
 -1         6 0.00000E+00 0.00000E+00 0.00000E+00
 -1         7 0.00000E+00 0.00000E+00 0.00000E+00
 -1         8 0.00000E+00 0.00000E+00 0.00000E+00
 -1        21 0.00000E+00 0.00000E+00 0.00000E+00
 -1        22 0.00000E+00 0.00000E+00 0.00000E+00
 -1        23 0.00000E+00 0.00000E+00 0.00000E+00
 -1        24 0.00000E+00 0.00000E+00 0.00000E+00
 -1        25 0.00000E+00 0.00000E+00 0.00000E+00
 -1        26 0.00000E+00 0.00000E+00 0.00000E+00
 -1        27 0.00000E+00 0.00000E+00 0.00000E+00
 -1        28 0.00000E+00 0.00000E+00 0.00000E+00
 -1        29 0.00000E+00 0.00000E+00 0.00000E+00
 -1        30 0.00000E+00 0.00000E+00 0.00000E+00
 -1        31 0.00000E+00 0.00000E+00 0.00000E+00
 -1        32 0.00000E+00 0.00000E+00 0.00000E+00
 -1        44-9.57461E-05 9.88405E-04-1.44011E-04
 -1        45-2.23603E-05 7.68120E-04-2.32165E-04
 -1        46 2.60247E-05 5.62444E-04-2.65632E-04
 -1        47-3.29705E-05 2.27820E-04-1.74832E-04
 -1        48 3.29690E-05 2.27818E-04-1.74828E-04
 -1        49-2.60201E-05 5.62426E-04-2.65626E-04
 -1        50 2.23269E-05 7.68140E-04-2.32175E-04
 -1        51 9.57517E-05 9.88389E-04-1.44023E-04
 -1        74 9.35117E-05 9.90669E-04 1.44022E-04
 -1        75 2.09782E-05 7.69394E-04 2.32220E-04
 -1        76-2.52115E-05 5.61724E-04 2.65662E-04
 -1        77 3.33541E-05 2.27441E-04 1.74825E-04
 -1        89-9.36458E-05 9.90594E-04 1.44053E-04
 -1        90-2.10065E-05 7.69408E-04 2.32222E-04
 -1        91 2.52023E-05 5.61718E-04 2.65696E-04
 -1        92-3.33548E-05 2.27442E-04 1.74843E-04
 -1        98 0.00000E+00 0.00000E+00 0.00000E+00
 -1        99 0.00000E+00 0.00000E+00 0.00000E+00
 -1       100 0.00000E+00 0.00000E+00 0.00000E+00
 -1       101 0.00000E+00 0.00000E+00 0.00000E+00
 -1       102 0.00000E+00 0.00000E+00 0.00000E+00
 -1       124 3.97587E-06 9.10833E-04-1.35744E-04
 -1       125-1.88641E-08 1.08796E-03-1.42445E-04
 -1       126-3.99120E-06 9.10852E-04-1.35739E-04
 -1       127-6.28621E-09 8.01107E-04-2.56784E-04
 -1       128-2.30201E-06 5.89812E-04-2.85188E-04
 -1       129-1.00983E-08 5.47038E-04-2.90797E-04
 -1       130 2.29345E-06 5.89819E-04-2.85189E-04
 -1       131 8.37668E-10 2.30896E-04-1.69787E-04
 -1       153 7.88945E-05 1.18074E-03-6.39358E-05
 -1       154-5.49448E-07 1.04743E-03-3.47005E-08
 -1       155-7.80637E-05 1.18124E-03 6.39439E-05
 -1       156 3.77793E-08 8.65941E-04 1.30057E-07
 -1       157-1.59296E-05 4.88061E-04-1.14406E-04
 -1       158-1.27034E-08 4.98218E-04 5.11736E-08
 -1       159 1.57306E-05 4.87864E-04 1.14394E-04
 -1       160 1.08279E-09 1.89197E-04 8.77016E-09
 -1       182 3.63982E-06 9.10135E-04 1.35768E-04
 -1       183-4.49867E-08 1.08872E-03 1.42474E-04
 -1       184-3.74159E-06 9.10102E-04 1.35805E-04
 -1       185-9.78668E-09 8.00974E-04 2.56456E-04
 -1       186-2.10512E-06 5.90000E-04 2.85222E-04
 -1       187-4.31067E-09 5.47066E-04 2.90707E-04
 -1       188 2.09429E-06 5.89996E-04 2.85235E-04
 -1       189-1.22568E-10 2.30924E-04 1.69782E-04
 -1       211 7.79780E-05 1.18121E-03 6.40593E-05
 -1       212 5.06480E-07 1.04746E-03-7.37357E-08
 -1       213-7.88900E-05 1.18076E-03-6.39781E-05
 -1       214-5.54242E-08 8.65908E-04 1.37982E-07
 -1       215-1.57425E-05 4.87872E-04 1.14391E-04
 -1       216 1.40691E-09 4.98236E-04 6.43675E-08
 -1       217 1.59215E-05 4.88059E-04-1.14395E-04
 -1       218-2.92078E-09 1.89195E-04 1.34687E-08
 -1       250-1.31424E-08 1.17482E-03-6.34940E-05
 -1       251 1.87097E-07 7.43294E-04-7.49876E-08
 -1       252-1.63790E-09 9.49414E-04 1.51108E-08
 -1       253-2.09257E-07 7.43271E-04-3.81467E-08
 -1       254-2.47646E-08 1.17507E-03 6.35917E-05
 -1       255-1.29875E-08 8.47099E-04 4.42097E-09
 -1       256-5.19685E-09 4.81434E-04-1.27651E-04
 -1       257 1.12384E-08 5.62722E-04 7.83835E-09
 -1       258-6.95990E-10 4.98793E-04-4.71559E-09
 -1       259-1.72089E-08 5.62715E-04-2.96291E-09
 -1       260-2.18645E-09 4.81470E-04 1.27652E-04
 -1       261-2.09773E-09 2.14173E-04 2.66059E-09
 -3
    1PSTEP                         5           5           1          
  100CL  105 2.50000E-02          81                     1    5           1
 -4  DISP        4    1
 -5  D1          1    2    1    0
 -5  D2          1    2    2    0
 -5  D3          1    2    3    0
 -5  ALL         1    2    0    0    1ALL
 -1         5 0.00000E+00 0.00000E+00 0.00000E+00
 -1         6 0.00000E+00 0.00000E+00 0.00000E+00
 -1         7 0.00000E+00 0.00000E+00 0.00000E+00
 -1         8 0.00000E+00 0.00000E+00 0.00000E+00
 -1        21 0.00000E+00 0.00000E+00 0.00000E+00
 -1        22 0.00000E+00 0.00000E+00 0.00000E+00
 -1        23 0.00000E+00 0.00000E+00 0.00000E+00
 -1        24 0.00000E+00 0.00000E+00 0.00000E+00
 -1        25 0.00000E+00 0.00000E+00 0.00000E+00
 -1        26 0.00000E+00 0.00000E+00 0.00000E+00
 -1        27 0.00000E+00 0.00000E+00 0.00000E+00
 -1        28 0.00000E+00 0.00000E+00 0.00000E+00
 -1        29 0.00000E+00 0.00000E+00 0.00000E+00
 -1        30 0.00000E+00 0.00000E+00 0.00000E+00
 -1        31 0.00000E+00 0.00000E+00 0.00000E+00
 -1        32 0.00000E+00 0.00000E+00 0.00000E+00
 -1        44 7.44775E-05-7.44372E-04 1.08666E-04
 -1        45 1.75283E-05-5.79210E-04 1.75286E-04
 -1        46-2.00347E-05-4.24949E-04 2.00381E-04
 -1        47 2.46325E-05-1.72294E-04 1.32066E-04
 -1        48-2.46303E-05-1.72291E-04 1.32050E-04
 -1        49 2.00276E-05-4.24942E-04 2.00359E-04
 -1        50-1.74800E-05-5.79217E-04 1.75309E-04
 -1        51-7.43679E-05-7.44501E-04 1.08689E-04
 -1        74-7.38154E-05-7.44942E-04-1.08750E-04
 -1        75-1.71474E-05-5.79509E-04-1.75398E-04
 -1        76 1.98968E-05-4.24832E-04-2.00338E-04
 -1        77-2.47224E-05-1.72219E-04-1.32028E-04
 -1        89 7.38401E-05-7.44834E-04-1.08670E-04
 -1        90 1.72303E-05-5.79505E-04-1.75355E-04
 -1        91-1.99234E-05-4.24837E-04-2.00391E-04
 -1        92 2.47250E-05-1.72221E-04-1.32060E-04
 -1        98 0.00000E+00 0.00000E+00 0.00000E+00
 -1        99 0.00000E+00 0.00000E+00 0.00000E+00
 -1       100 0.00000E+00 0.00000E+00 0.00000E+00
 -1       101 0.00000E+00 0.00000E+00 0.00000E+00
 -1       102 0.00000E+00 0.00000E+00 0.00000E+00
 -1       124-3.85554E-06-6.87961E-04 1.02503E-04
 -1       125 5.63604E-08-8.20845E-04 1.07497E-04
 -1       126 3.95032E-06-6.87925E-04 1.02479E-04
 -1       127 1.39445E-08-6.04881E-04 1.93704E-04
 -1       128 1.90915E-06-4.45085E-04 2.15272E-04
 -1       129 1.06501E-08-4.12929E-04 2.19644E-04
 -1       130-1.89762E-06-4.45083E-04 2.15283E-04
 -1       131-1.56148E-09-1.74262E-04 1.28134E-04
 -1       153-6.07081E-05-8.91718E-04 4.83462E-05
 -1       154 1.81649E-07-7.93041E-04-9.87312E-08
 -1       155 6.04534E-05-8.92349E-04-4.82997E-05
 -1       156 4.41934E-08-6.53326E-04-4.52217E-08
 -1       157 1.22949E-05-3.68876E-04 8.62886E-05
 -1       158-3.76505E-08-3.76667E-04 7.96343E-09
 -1       159-1.22299E-05-3.68741E-04-8.62866E-05
 -1       160-9.81074E-09-1.42773E-04 4.56700E-09
 -1       182-3.31730E-06-6.87873E-04-1.02447E-04
 -1       183 7.38197E-08-8.20949E-04-1.07610E-04
 -1       184 3.39079E-06-6.87858E-04-1.02511E-04
 -1       185-5.37670E-09-6.04781E-04-1.93689E-04
 -1       186 1.79551E-06-4.45111E-04-2.15284E-04
 -1       187 2.33245E-08-4.12949E-04-2.19600E-04
 -1       188-1.78130E-06-4.45106E-04-2.15287E-04
 -1       189-2.53518E-09-1.74294E-04-1.28126E-04
 -1       211-6.04481E-05-8.92273E-04-4.83650E-05
 -1       212-1.28739E-07-7.93046E-04-3.31117E-09
 -1       213 6.07641E-05-8.91808E-04 4.83147E-05
 -1       214-3.42778E-08-6.53322E-04-5.01690E-08
 -1       215 1.22366E-05-3.68747E-04-8.62872E-05
 -1       216 6.25928E-08-3.76663E-04-1.22826E-08
 -1       217-1.22807E-05-3.68867E-04 8.62910E-05
 -1       218 1.19808E-08-1.42773E-04-2.74711E-09
 -1       250 1.99088E-08-8.85512E-04 4.79189E-05
 -1       251 1.84191E-07-5.61114E-04-2.26515E-09
 -1       252-2.60405E-08-7.14909E-04-8.48542E-08
 -1       253-1.79507E-07-5.61115E-04-8.65174E-08
 -1       254 3.07922E-08-8.85185E-04-4.80045E-05
 -1       255 1.73195E-08-6.39791E-04 5.91428E-09
 -1       256 3.70980E-09-3.63285E-04 9.64297E-05
 -1       257-2.89920E-08-4.24922E-04-8.14988E-09
 -1       258-2.39165E-09-3.76160E-04 4.81781E-09
 -1       259 3.67937E-08-4.24923E-04 1.09604E-08
 -1       260 9.27118E-09-3.63377E-04-9.64346E-05
 -1       261 4.60702E-09-1.61730E-04 1.73417E-09
 -3
    1PSTEP                         6           6           1          
  100CL  106 3.00000E-02          81                     1    6           1
 -4  DISP        4    1
 -5  D1          1    2    1    0
 -5  D2          1    2    2    0
 -5  D3          1    2    3    0
 -5  ALL         1    2    0    0    1ALL
 -1         5 0.00000E+00 0.00000E+00 0.00000E+00
 -1         6 0.00000E+00 0.00000E+00 0.00000E+00
 -1         7 0.00000E+00 0.00000E+00 0.00000E+00
 -1         8 0.00000E+00 0.00000E+00 0.00000E+00
 -1        21 0.00000E+00 0.00000E+00 0.00000E+00
 -1        22 0.00000E+00 0.00000E+00 0.00000E+00
 -1        23 0.00000E+00 0.00000E+00 0.00000E+00
 -1        24 0.00000E+00 0.00000E+00 0.00000E+00
 -1        25 0.00000E+00 0.00000E+00 0.00000E+00
 -1        26 0.00000E+00 0.00000E+00 0.00000E+00
 -1        27 0.00000E+00 0.00000E+00 0.00000E+00
 -1        28 0.00000E+00 0.00000E+00 0.00000E+00
 -1        29 0.00000E+00 0.00000E+00 0.00000E+00
 -1        30 0.00000E+00 0.00000E+00 0.00000E+00
 -1        31 0.00000E+00 0.00000E+00 0.00000E+00
 -1        32 0.00000E+00 0.00000E+00 0.00000E+00
 -1        44-5.15777E-05 5.41274E-04-7.87316E-05
 -1        45-1.20129E-05 4.20389E-04-1.27043E-04
 -1        46 1.41221E-05 3.07953E-04-1.45499E-04
 -1        47-1.81216E-05 1.24636E-04-9.56639E-05