    1C
    1UUSER                                                              
    1UDATE              17.july.2018                                    
    1UTIME              21:32:41                                        
    1UHOST                                                              
    1UPGM               CalculiX                                        
    1UVERSION           Version 2.13                             
    1UCOMPILETIME       jue jun 14 00:40:39 CEST 2018                    
    1UDIR                                                               
    1UDBN                                                               
    1UMAT    1EL                                                        
    2C                           201                                     1
 -1         1 0.00000E+00 0.00000E+00 0.00000E+00
 -1         2 1.00000E+00 0.00000E+00 0.00000E+00
 -1         3 1.00000E+00 1.00000E+00 0.00000E+00
 -1         4 0.00000E+00 1.00000E+00 0.00000E+00
 -1         9 2.50000E-01 0.00000E+00 0.00000E+00
 -1        10 5.00000E-01 0.00000E+00 0.00000E+00
 -1        11 7.50000E-01 0.00000E+00 0.00000E+00
 -1        12 1.00000E+00 2.50000E-01 0.00000E+00
 -1        13 1.00000E+00 5.00000E-01 0.00000E+00
 -1        14 1.00000E+00 7.50000E-01 0.00000E+00
 -1        15 7.50000E-01 1.00000E+00 0.00000E+00
 -1        16 5.00000E-01 1.00000E+00 0.00000E+00
 -1        17 2.50000E-01 1.00000E+00 0.00000E+00
 -1        18 0.00000E+00 7.50000E-01 0.00000E+00
 -1        19 0.00000E+00 5.00000E-01 0.00000E+00
 -1        20 0.00000E+00 2.50000E-01 0.00000E+00
 -1        33 1.00000E+00 0.00000E+00 5.00000E-01
 -1        34 1.00000E+00 0.00000E+00 1.00000E+00
 -1        35 1.00000E+00 0.00000E+00 1.50000E+00
 -1        36 1.00000E+00 0.00000E+00 2.00000E+00
 -1        37 1.00000E+00 0.00000E+00 2.50000E+00
 -1        38 1.00000E+00 0.00000E+00 3.00000E+00
 -1        39 1.00000E+00 0.00000E+00 3.50000E+00
 -1        40 1.00000E+00 0.00000E+00 4.00000E+00
 -1        41 1.00000E+00 0.00000E+00 4.50000E+00
 -1        42 1.00000E+00 0.00000E+00 5.00000E+00
 -1        43 1.00000E+00 0.00000E+00 5.50000E+00
 -1        44 1.00000E+00 0.00000E+00 6.00000E+00
 -1        51 0.00000E+00 0.00000E+00 6.00000E+00
 -1        52 0.00000E+00 0.00000E+00 5.50000E+00
 -1        53 0.00000E+00 0.00000E+00 5.00000E+00
 -1        54 0.00000E+00 0.00000E+00 4.50000E+00
 -1        55 0.00000E+00 0.00000E+00 4.00000E+00
 -1        56 0.00000E+00 0.00000E+00 3.50000E+00
 -1        57 0.00000E+00 0.00000E+00 3.00000E+00
 -1        58 0.00000E+00 0.00000E+00 2.50000E+00
 -1        59 0.00000E+00 0.00000E+00 2.00000E+00
 -1        60 0.00000E+00 0.00000E+00 1.50000E+00
 -1        61 0.00000E+00 0.00000E+00 1.00000E+00
 -1        62 0.00000E+00 0.00000E+00 5.00000E-01
 -1        63 1.00000E+00 1.00000E+00 5.00000E-01
 -1        64 1.00000E+00 1.00000E+00 1.00000E+00
 -1        65 1.00000E+00 1.00000E+00 1.50000E+00
 -1        66 1.00000E+00 1.00000E+00 2.00000E+00
 -1        67 1.00000E+00 1.00000E+00 2.50000E+00
 -1        68 1.00000E+00 1.00000E+00 3.00000E+00
 -1        69 1.00000E+00 1.00000E+00 3.50000E+00
 -1        70 1.00000E+00 1.00000E+00 4.00000E+00
 -1        71 1.00000E+00 1.00000E+00 4.50000E+00
 -1        72 1.00000E+00 1.00000E+00 5.00000E+00
 -1        73 1.00000E+00 1.00000E+00 5.50000E+00
 -1        74 1.00000E+00 1.00000E+00 6.00000E+00
 -1        78 0.00000E+00 1.00000E+00 5.00000E-01
 -1        79 0.00000E+00 1.00000E+00 1.00000E+00
 -1        80 0.00000E+00 1.00000E+00 1.50000E+00
 -1        81 0.00000E+00 1.00000E+00 2.00000E+00
 -1        82 0.00000E+00 1.00000E+00 2.50000E+00
 -1        83 0.00000E+00 1.00000E+00 3.00000E+00
 -1        84 0.00000E+00 1.00000E+00 3.50000E+00
 -1        85 0.00000E+00 1.00000E+00 4.00000E+00
 -1        86 0.00000E+00 1.00000E+00 4.50000E+00
 -1        87 0.00000E+00 1.00000E+00 5.00000E+00
 -1        88 0.00000E+00 1.00000E+00 5.50000E+00
 -1        89 0.00000E+00 1.00000E+00 6.00000E+00
 -1        93 5.00000E-01 2.50000E-01 0.00000E+00
 -1        94 2.50000E-01 5.00000E-01 0.00000E+00
 -1        95 5.00000E-01 5.00000E-01 0.00000E+00
 -1        96 7.50000E-01 5.00000E-01 0.00000E+00
 -1        97 5.00000E-01 7.50000E-01 0.00000E+00
 -1       103 5.00000E-01 0.00000E+00 5.00000E-01
 -1       104 2.50000E-01 0.00000E+00 1.00000E+00
 -1       105 5.00000E-01 0.00000E+00 1.00000E+00
 -1       106 7.50000E-01 0.00000E+00 1.00000E+00
 -1       107 5.00000E-01 0.00000E+00 1.50000E+00
 -1       108 2.50000E-01 0.00000E+00 2.00000E+00
 -1       109 5.00000E-01 0.00000E+00 2.00000E+00
 -1       110 7.50000E-01 0.00000E+00 2.00000E+00
 -1       111 5.00000E-01 0.00000E+00 2.50000E+00
 -1       112 2.50000E-01 0.00000E+00 3.00000E+00
 -1       113 5.00000E-01 0.00000E+00 3.00000E+00
 -1       114 7.50000E-01 0.00000E+00 3.00000E+00
 -1       115 5.00000E-01 0.00000E+00 3.50000E+00
 -1       116 2.50000E-01 0.00000E+00 4.00000E+00
 -1       117 5.00000E-01 0.00000E+00 4.00000E+00
 -1       118 7.50000E-01 0.00000E+00 4.00000E+00
 -1       119 5.00000E-01 0.00000E+00 4.50000E+00
 -1       120 2.50000E-01 0.00000E+00 5.00000E+00
 -1       121 5.00000E-01 0.00000E+00 5.00000E+00
 -1       122 7.50000E-01 0.00000E+00 5.00000E+00
 -1       123 5.00000E-01 0.00000E+00 5.50000E+00
 -1       124 2.50000E-01 0.00000E+00 6.00000E+00
 -1       125 5.00000E-01 0.00000E+00 6.00000E+00
 -1       126 7.50000E-01 0.00000E+00 6.00000E+00
 -1       132 1.00000E+00 5.00000E-01 5.00000E-01
 -1       133 1.00000E+00 2.50000E-01 1.00000E+00
 -1       134 1.00000E+00 5.00000E-01 1.00000E+00
 -1       135 1.00000E+00 7.50000E-01 1.00000E+00
 -1       136 1.00000E+00 5.00000E-01 1.50000E+00
 -1       137 1.00000E+00 2.50000E-01 2.00000E+00
 -1       138 1.00000E+00 5.00000E-01 2.00000E+00
 -1       139 1.00000E+00 7.50000E-01 2.00000E+00
 -1       140 1.00000E+00 5.00000E-01 2.50000E+00
 -1       141 1.00000E+00 2.50000E-01 3.00000E+00
 -1       142 1.00000E+00 5.00000E-01 3.00000E+00
 -1       143 1.00000E+00 7.50000E-01 3.00000E+00
 -1       144 1.00000E+00 5.00000E-01 3.50000E+00
 -1       145 1.00000E+00 2.50000E-01 4.00000E+00
 -1       146 1.00000E+00 5.00000E-01 4.00000E+00
 -1       147 1.00000E+00 7.50000E-01 4.00000E+00
 -1       148 1.00000E+00 5.00000E-01 4.50000E+00
 -1       149 1.00000E+00 2.50000E-01 5.00000E+00
 -1       150 1.00000E+00 5.00000E-01 5.00000E+00
 -1       151 1.00000E+00 7.50000E-01 5.00000E+00
 -1       152 1.00000E+00 5.00000E-01 5.50000E+00
 -1       153 1.00000E+00 2.50000E-01 6.00000E+00
 -1       154 1.00000E+00 5.00000E-01 6.00000E+00
 -1       155 1.00000E+00 7.50000E-01 6.00000E+00
 -1       161 5.00000E-01 1.00000E+00 5.00000E-01
 -1       162 7.50000E-01 1.00000E+00 1.00000E+00
 -1       163 5.00000E-01 1.00000E+00 1.00000E+00
 -1       164 2.50000E-01 1.00000E+00 1.00000E+00
 -1       165 5.00000E-01 1.00000E+00 1.50000E+00
 -1       166 7.50000E-01 1.00000E+00 2.00000E+00
 -1       167 5.00000E-01 1.00000E+00 2.00000E+00
 -1       168 2.50000E-01 1.00000E+00 2.00000E+00
 -1       169 5.00000E-01 1.00000E+00 2.50000E+00
 -1       170 7.50000E-01 1.00000E+00 3.00000E+00
 -1       171 5.00000E-01 1.00000E+00 3.00000E+00
 -1       172 2.50000E-01 1.00000E+00 3.00000E+00
 -1       173 5.00000E-01 1.00000E+00 3.50000E+00
 -1       174 7.50000E-01 1.00000E+00 4.00000E+00
 -1       175 5.00000E-01 1.00000E+00 4.00000E+00
 -1       176 2.50000E-01 1.00000E+00 4.00000E+00
 -1       177 5.00000E-01 1.00000E+00 4.50000E+00
 -1       178 7.50000E-01 1.00000E+00 5.00000E+00
 -1       179 5.00000E-01 1.00000E+00 5.00000E+00
 -1       180 2.50000E-01 1.00000E+00 5.00000E+00
 -1       181 5.00000E-01 1.00000E+00 5.50000E+00
 -1       182 7.50000E-01 1.00000E+00 6.00000E+00
 -1       183 5.00000E-01 1.00000E+00 6.00000E+00
 -1       184 2.50000E-01 1.00000E+00 6.00000E+00
 -1       190 0.00000E+00 5.00000E-01 5.00000E-01
 -1       191 0.00000E+00 7.50000E-01 1.00000E+00
 -1       192 0.00000E+00 5.00000E-01 1.00000E+00
 -1       193 0.00000E+00 2.50000E-01 1.00000E+00
 -1       194 0.00000E+00 5.00000E-01 1.50000E+00
 -1       195 0.00000E+00 7.50000E-01 2.00000E+00
 -1       196 0.00000E+00 5.00000E-01 2.00000E+00
 -1       197 0.00000E+00 2.50000E-01 2.00000E+00
 -1       198 0.00000E+00 5.00000E-01 2.50000E+00
 -1       199 0.00000E+00 7.50000E-01 3.00000E+00
 -1       200 0.00000E+00 5.00000E-01 3.00000E+00
 -1       201 0.00000E+00 2.50000E-01 3.00000E+00
 -1       202 0.00000E+00 5.00000E-01 3.50000E+00
 -1       203 0.00000E+00 7.50000E-01 4.00000E+00
 -1       204 0.00000E+00 5.00000E-01 4.00000E+00
 -1       205 0.00000E+00 2.50000E-01 4.00000E+00
 -1       206 0.00000E+00 5.00000E-01 4.50000E+00
 -1       207 0.00000E+00 7.50000E-01 5.00000E+00
 -1       208 0.00000E+00 5.00000E-01 5.00000E+00
 -1       209 0.00000E+00 2.50000E-01 5.00000E+00
 -1       210 0.00000E+00 5.00000E-01 5.50000E+00
 -1       211 0.00000E+00 7.50000E-01 6.00000E+00
 -1       212 0.00000E+00 5.00000E-01 6.00000E+00
 -1       213 0.00000E+00 2.50000E-01 6.00000E+00
 -1       219 5.00000E-01 5.00000E-01 5.00000E-01
 -1       220 5.00000E-01 2.50000E-01 1.00000E+00
 -1       221 2.50000E-01 5.00000E-01 1.00000E+00
 -1       222 5.00000E-01 5.00000E-01 1.00000E+00
 -1       223 7.50000E-01 5.00000E-01 1.00000E+00
 -1       224 5.00000E-01 7.50000E-01 1.00000E+00
 -1       225 5.00000E-01 5.00000E-01 1.50000E+00
 -1       226 5.00000E-01 2.50000E-01 2.00000E+00
 -1       227 2.50000E-01 5.00000E-01 2.00000E+00
 -1       228 5.00000E-01 5.00000E-01 2.00000E+00
 -1       229 7.50000E-01 5.00000E-01 2.00000E+00
 -1       230 5.00000E-01 7.50000E-01 2.00000E+00
 -1       231 5.00000E-01 5.00000E-01 2.50000E+00
 -1       232 5.00000E-01 2.50000E-01 3.00000E+00
 -1       233 2.50000E-01 5.00000E-01 3.00000E+00
 -1       234 5.00000E-01 5.00000E-01 3.00000E+00
 -1       235 7.50000E-01 5.00000E-01 3.00000E+00
 -1       236 5.00000E-01 7.50000E-01 3.00000E+00
 -1       237 5.00000E-01 5.00000E-01 3.50000E+00
 -1       238 5.00000E-01 2.50000E-01 4.00000E+00
 -1       239 2.50000E-01 5.00000E-01 4.00000E+00
 -1       240 5.00000E-01 5.00000E-01 4.00000E+00
 -1       241 7.50000E-01 5.00000E-01 4.00000E+00
 -1       242 5.00000E-01 7.50000E-01 4.00000E+00
 -1       243 5.00000E-01 5.00000E-01 4.50000E+00
 -1       244 5.00000E-01 2.50000E-01 5.00000E+00
 -1       245 2.50000E-01 5.00000E-01 5.00000E+00
 -1       246 5.00000E-01 5.00000E-01 5.00000E+00
 -1       247 7.50000E-01 5.00000E-01 5.00000E+00
 -1       248 5.00000E-01 7.50000E-01 5.00000E+00
 -1       249 5.00000E-01 5.00000E-01 5.50000E+00
 -1       250 5.00000E-01 2.50000E-01 6.00000E+00
 -1       251 2.50000E-01 5.00000E-01 6.00000E+00
 -1       252 5.00000E-01 5.00000E-01 6.00000E+00
 -1       253 7.50000E-01 5.00000E-01 6.00000E+00
 -1       254 5.00000E-01 7.50000E-01 6.00000E+00
 -3
    3C                            24                                     1
 -1         1    4    0    1
 -2         1        10        95        19        61       105       222       192         9        93
 -2        94        20        62       103       219       190       104       220       221       193
 -1         2    4    0    1
 -2        10         2        13        95       105        34       134       222        11        12
 -2        96        93       103        33       132       219       106       133       223       220
 -1         3    4    0    1
 -2        19        95        16         4       192       222       163        79        94        97
 -2        17        18       190       219       161        78       221       224       164       191
 -1         4    4    0    1
 -2        95        13         3        16       222       134        64       163        96        14
 -2        15        97       219       132        63       161       223       135       162       224
 -1         5    4    0    1
 -2        61       105       222       192        59       109       228       196       104       220
 -2       221       193        60       107       225       194       108       226       227       197
 -1         6    4    0    1
 -2       105        34       134       222       109        36       138       228       106       133
 -2       223       220       107        35       136       225       110       137       229       226
 -1         7    4    0    1
 -2       192       222       163        79       196       228       167        81       221       224
 -2       164       191       194       225       165        80       227       230       168       195
 -1         8    4    0    1
 -2       222       134        64       163       228       138        66       167       223       135
 -2       162       224       225       136        65       165       229       139       166       230
 -1         9    4    0    1
 -2        59       109       228       196        57       113       234       200       108       226
 -2       227       197        58       111       231       198       112       232       233       201
 -1        10    4    0    1
 -2       109        36       138       228       113        38       142       234       110       137
 -2       229       226       111        37       140       231       114       141       235       232
 -1        11    4    0    1
 -2       196       228       167        81       200       234       171        83       227       230
 -2       168       195       198       231       169        82       233       236       172       199
 -1        12    4    0    1
 -2       228       138        66       167       234       142        68       171       229       139
 -2       166       230       231       140        67       169       235       143       170       236
 -1        13    4    0    1
 -2        57       113       234       200        55       117       240       204       112       232
 -2       233       201        56       115       237       202       116       238       239       205
 -1        14    4    0    1
 -2       113        38       142       234       117        40       146       240       114       141
 -2       235       232       115        39       144       237       118       145       241       238
 -1        15    4    0    1
 -2       200       234       171        83       204       240       175        85       233       236
 -2       172       199       202       237       173        84       239       242       176       203
 -1        16    4    0    1
 -2       234       142        68       171       240       146        70       175       235       143
 -2       170       236       237       144        69       173       241       147       174       242
 -1        17    4    0    1
 -2        55       117       240       204        53       121       246       208       116       238
 -2       239       205        54       119       243       206       120       244       245       209
 -1        18    4    0    1
 -2       117        40       146       240       121        42       150       246       118       145
 -2       241       238       119        41       148       243       122       149       247       244
 -1        19    4    0    1
 -2       204       240       175        85       208       246       179        87       239       242
 -2       176       203       206       243       177        86       245       248       180       207
 -1        20    4    0    1
 -2       240       146        70       175       246       150        72       179       241       147
 -2       174       242       243       148        71       177       247       151       178       248
 -1        21    4    0    1
 -2        53       121       246       208        51       125       252       212       120       244
 -2       245       209        52       123       249       210       124       250       251       213
 -1        22    4    0    1
 -2       121        42       150       246       125        44       154       252       122       149
 -2       247       244       123        43       152       249       126       153       253       250
 -1        23    4    0    1
 -2       208       246       179        87       212       252       183        89       245       248
 -2       180       207       210       249       181        88       251       254       184       211
 -1        24    4    0    1
 -2       246       150        72       179       252       154        74       183       247       151
 -2       178       248       249       152        73       181       253       155       182       254
 -3
    1PSTEP                         1           1           1          
  100CL  101 5.00000E-03         201                     1    1           1
 -4  DISP        4    1
 -5  D1          1    2    1    0
 -5  D2          1    2    2    0
 -5  D3          1    2    3    0
 -5  ALL         1    2    0    0    1ALL
 -1         1 0.00000E+00 0.00000E+00 0.00000E+00
 -1         2 0.00000E+00 0.00000E+00 0.00000E+00
 -1         3 0.00000E+00 0.00000E+00 0.00000E+00
 -1         4 0.00000E+00 0.00000E+00 0.00000E+00
 -1         9 0.00000E+00 0.00000E+00 0.00000E+00
 -1        10 0.00000E+00 0.00000E+00 0.00000E+00
 -1        11 0.00000E+00 0.00000E+00 0.00000E+00
 -1        12 0.00000E+00 0.00000E+00 0.00000E+00
 -1        13 0.00000E+00 0.00000E+00 0.00000E+00
 -1        14 0.00000E+00 0.00000E+00 0.00000E+00
 -1        15 0.00000E+00 0.00000E+00 0.00000E+00
 -1        16 0.00000E+00 0.00000E+00 0.00000E+00
 -1        17 0.00000E+00 0.00000E+00 0.00000E+00
 -1        18 0.00000E+00 0.00000E+00 0.00000E+00
 -1        19 0.00000E+00 0.00000E+00 0.00000E+00
 -1        20 0.00000E+00 0.00000E+00 0.00000E+00
 -1        33 6.38218E-05-1.55632E-04-2.04488E-04
 -1        34 3.13317E-05-4.81841E-04-3.74357E-04
 -1        35 2.57626E-05-9.70719E-04-4.83921E-04
 -1        36 8.15670E-06-1.52828E-03-5.40970E-04
 -1        37-5.14353E-06-2.11175E-03-5.47825E-04
 -1        38-2.10760E-05-2.69458E-03-5.19178E-04
 -1        39-4.26043E-05-3.19562E-03-3.84869E-04
 -1        40-4.31910E-05-3.54368E-03-2.09725E-04
 -1        41-4.40719E-05-3.58081E-03-6.40985E-05
 -1        42-6.07868E-05-3.74010E-03-1.48364E-04
 -1        43 6.09989E-05-3.47424E-03 8.54533E-05
 -1        44-6.14992E-05-3.46810E-03 4.48280E-04
 -1        51 6.15337E-05-3.46806E-03 4.48275E-04
 -1        52-6.09473E-05-3.47422E-03 8.54619E-05
 -1        53 6.07977E-05-3.74013E-03-1.48365E-04
 -1        54 4.41008E-05-3.58081E-03-6.40897E-05
 -1        55 4.32080E-05-3.54368E-03-2.09728E-04
 -1        56 4.26277E-05-3.19562E-03-3.84865E-04
 -1        57 2.10888E-05-2.69458E-03-5.19175E-04
 -1        58 5.15643E-06-2.11175E-03-5.47820E-04
 -1        59-8.14903E-06-1.52828E-03-5.40967E-04
 -1        60-2.57568E-05-9.70718E-04-4.83918E-04
 -1        61-3.13295E-05-4.81841E-04-3.74355E-04
 -1        62-6.38208E-05-1.55632E-04-2.04487E-04
 -1        63-6.26370E-05-1.53890E-04 2.01031E-04
 -1        64-3.11574E-05-4.81271E-04 3.66947E-04
 -1        65-2.34176E-05-9.70236E-04 4.73540E-04
 -1        66-7.93112E-06-1.53472E-03 5.27161E-04
 -1        67 5.03726E-06-2.10208E-03 5.30794E-04
 -1        68 1.46605E-05-2.69518E-03 4.93889E-04
 -1        69 5.85575E-05-3.20610E-03 3.58107E-04
 -1        70 6.58261E-05-3.63446E-03 1.84457E-04
 -1        71-5.05418E-06-3.45958E-03 3.33518E-05
 -1        72-1.03462E-04-3.47938E-03 7.90539E-05
 -1        73 2.00962E-04-3.88612E-03-1.68560E-04
 -1        74 3.15688E-04-4.40764E-03-4.94624E-04
 -1        78 6.26374E-05-1.53891E-04 2.01032E-04
 -1        79 3.11603E-05-4.81272E-04 3.66950E-04
 -1        80 2.34228E-05-9.70236E-04 4.73542E-04
 -1        81 7.94183E-06-1.53472E-03 5.27165E-04
 -1        82-5.02577E-06-2.10208E-03 5.30798E-04
 -1        83-1.46409E-05-2.69518E-03 4.93893E-04
 -1        84-5.85380E-05-3.20610E-03 3.58109E-04
 -1        85-6.57902E-05-3.63447E-03 1.84466E-04
 -1        86 5.07281E-06-3.45958E-03 3.33535E-05
 -1        87 1.03500E-04-3.47939E-03 7.90435E-05
 -1        88-2.00932E-04-3.88610E-03-1.68586E-04
 -1        89-3.15578E-04-4.40768E-03-4.94629E-04
 -1        93 0.00000E+00 0.00000E+00 0.00000E+00
 -1        94 0.00000E+00 0.00000E+00 0.00000E+00
 -1        95 0.00000E+00 0.00000E+00 0.00000E+00
 -1        96 0.00000E+00 0.00000E+00 0.00000E+00
 -1        97 0.00000E+00 0.00000E+00 0.00000E+00
 -1       103 3.39725E-10-1.81908E-04-2.00693E-04
 -1       104-1.56233E-05-5.01266E-04-3.80270E-04
 -1       105 1.52958E-09-5.03787E-04-3.82909E-04
 -1       106 1.56259E-05-5.01266E-04-3.80271E-04
 -1       107 2.48024E-09-9.80810E-04-4.86644E-04
 -1       108-3.29568E-06-1.53046E-03-5.44672E-04
 -1       109 4.89396E-09-1.54111E-03-5.43610E-04
 -1       110 3.30454E-06-1.53046E-03-5.44674E-04
 -1       111 5.87100E-09-2.10293E-03-5.51601E-04
 -1       112 7.49077E-06-2.71869E-03-5.21340E-04
 -1       113 1.00484E-08-2.71186E-03-5.22911E-04
 -1       114-7.47487E-06-2.71869E-03-5.21341E-04
 -1       115 8.85381E-09-3.15735E-03-3.93403E-04
 -1       116 3.31211E-05-3.51990E-03-2.04114E-04
 -1       117 1.58773E-08-3.64247E-03-1.83298E-04
 -1       118-3.30943E-05-3.51989E-03-2.04115E-04
 -1       119 1.03360E-08-3.55446E-03-6.59203E-05
 -1       120-7.43772E-06-3.91156E-03-1.12952E-04
 -1       121 3.20511E-08-3.76457E-03-1.17799E-04
 -1       122 7.46551E-06-3.91157E-03-1.12946E-04
 -1       123 1.86844E-09-3.48424E-03-2.54620E-05
 -1       124 1.50606E-04-2.96477E-03 4.29311E-04
 -1       125 6.26587E-08-3.59096E-03 4.48469E-04
 -1       126-1.50489E-04-2.96472E-03 4.29292E-04
 -1       132 7.20668E-07-1.18656E-04-1.61167E-06
 -1       133 1.61366E-05-4.69576E-04-1.78010E-04
 -1       134 8.93011E-07-4.74282E-04-2.90723E-06
 -1       135-1.53889E-05-4.69675E-04 1.71144E-04
 -1       136-1.52966E-07-9.53182E-04-5.61373E-06
 -1       137 4.81639E-06-1.52636E-03-2.68637E-04
 -1       138 5.28441E-07-1.51854E-03-7.39993E-06
 -1       139-3.65501E-06-1.52803E-03 2.55105E-04
 -1       140 1.69975E-06-2.12590E-03-9.25023E-06
 -1       141-1.04396E-05-2.68004E-03-2.44376E-04
 -1       142 5.52655E-06-2.68656E-03-5.21805E-06
 -1       143 1.13083E-05-2.68625E-03 2.24102E-04
 -1       144-8.82345E-06-3.21965E-03-1.27729E-05
 -1       145-2.02854E-05-3.56256E-03-1.32145E-04
 -1       146-1.29388E-05-3.46545E-03-2.48107E-05
 -1       147 1.82109E-05-3.58653E-03 1.00656E-04
 -1       148 2.69718E-05-3.68151E-03-2.37851E-05
 -1       149-3.27806E-05-3.42164E-03-4.69591E-05
 -1       150 8.49248E-05-3.44918E-03-2.22105E-06
 -1       151 2.81893E-05-3.35481E-03-1.17763E-07
 -1       152-1.26268E-04-3.72151E-03 1.12111E-05
 -1       153 7.00341E-05-3.63807E-03 1.90950E-04
 -1       154-1.20260E-04-2.50342E-03-2.09594E-05
 -1       155-6.43057E-05-3.88789E-03-2.38048E-04
 -1       161 2.14082E-10-1.80692E-04 1.96949E-04
 -1       162-1.53655E-05-5.00609E-04 3.73492E-04
 -1       163 1.00404E-09-5.01325E-04 3.75667E-04
 -1       164 1.53678E-05-5.00609E-04 3.73493E-04
 -1       165 2.83573E-09-9.80866E-04 4.76528E-04
 -1       166-3.94343E-06-1.52781E-03 5.30508E-04
 -1       167 3.83185E-09-1.53702E-03 5.32727E-04
 -1       168 3.95269E-06-1.52781E-03 5.30510E-04
 -1       169 6.90598E-09-2.10382E-03 5.30791E-04
 -1       170 7.54501E-06-2.71853E-03 5.01206E-04
 -1       171 7.35726E-09-2.68055E-03 4.96821E-04
 -1       172-7.52814E-06-2.71853E-03 5.01208E-04
 -1       173 1.13798E-08-3.17798E-03 3.68912E-04
 -1       174 3.14393E-05-3.46168E-03 1.70989E-04
 -1       175 9.45523E-09-3.56146E-03 1.72522E-04
 -1       176-3.14106E-05-3.46168E-03 1.70993E-04
 -1       177 1.58368E-08-3.51168E-03 2.07203E-05
 -1       178-4.43571E-05-4.00803E-03 7.15127E-05
 -1       179 1.13075E-08-3.57940E-03 4.82848E-05
 -1       180 4.43825E-05-4.00805E-03 7.15084E-05
 -1       181 2.16319E-08-3.68364E-03-6.03359E-05
 -1       182 1.13836E-04-2.56421E-03-4.71151E-04
 -1       183 8.97737E-09-4.35304E-03-4.76558E-04
 -1       184-1.13752E-04-2.56415E-03-4.71163E-04
 -1       190-7.19767E-07-1.18656E-04-1.61061E-06
 -1       191 1.53919E-05-4.69676E-04 1.71146E-04
 -1       192-8.90392E-07-4.74282E-04-2.90502E-06
 -1       193-1.61340E-05-4.69575E-04-1.78008E-04
 -1       194 1.58797E-07-9.53182E-04-5.61058E-06
 -1       195 3.66464E-06-1.52803E-03 2.55109E-04
 -1       196-5.18780E-07-1.51854E-03-7.39614E-06
 -1       197-4.80809E-06-1.52636E-03-2.68634E-04
 -1       198-1.68769E-06-2.12590E-03-9.24671E-06
 -1       199-1.12893E-05-2.68625E-03 2.24107E-04
 -1       200-5.51256E-06-2.68656E-03-5.21475E-06
 -1       201 1.04547E-05-2.68003E-03-2.44373E-04
 -1       202 8.84723E-06-3.21965E-03-1.27680E-05
 -1       203-1.81861E-05-3.58653E-03 1.00661E-04
 -1       204 1.29699E-05-3.46545E-03-2.48051E-05
 -1       205 2.03037E-05-3.56256E-03-1.32144E-04
 -1       206-2.69554E-05-3.68152E-03-2.37857E-05
 -1       207-2.81465E-05-3.35481E-03-1.15636E-07
 -1       208-8.49415E-05-3.44915E-03-2.22209E-06
 -1       209 3.27965E-05-3.42164E-03-4.69594E-05
 -1       210 1.26350E-04-3.72153E-03 1.12176E-05
 -1       211 6.42902E-05-3.88785E-03-2.38071E-04
 -1       212 1.20373E-04-2.50338E-03-2.09588E-05
 -1       213-7.00268E-05-3.63807E-03 1.90959E-04
 -1       219 3.80837E-10-1.44431E-04-1.43912E-06
 -1       220 1.46009E-09-4.89399E-04-1.83660E-04
 -1       221-4.14639E-07-4.90922E-04-3.66138E-06
 -1       222 1.37140E-09-4.92327E-04-3.82757E-06
 -1       223 4.17328E-07-4.90922E-04-3.66252E-06
 -1       224 1.19277E-09-4.88018E-04 1.76650E-04
 -1       225 2.75811E-09-9.65341E-04-5.16682E-06
 -1       226 4.78951E-09-1.53388E-03-2.72926E-04
 -1       227-3.65305E-07-1.51977E-03-6.92365E-06
 -1       228 4.51894E-09-1.52164E-03-8.50427E-06
 -1       229 3.74434E-07-1.51977E-03-6.92546E-06
 -1       230 4.24567E-09-1.53223E-03 2.57638E-04
 -1       231 6.48751E-09-2.12449E-03-7.54178E-06
 -1       232 9.07278E-09-2.68803E-03-2.49424E-04
 -1       233-2.20379E-06-2.68381E-03-1.27768E-05
 -1       234 8.54887E-09-2.68094E-03-1.40675E-05
 -1       235 2.22026E-06-2.68381E-03-1.27792E-05
 -1       236 7.81813E-09-2.67084E-03 2.27034E-04
 -1       237 1.01123E-08-3.19200E-03-9.43612E-06
 -1       238 1.48926E-08-3.61122E-03-1.24153E-04
 -1       239 5.74766E-06-3.45328E-03-1.44984E-05
 -1       240 1.21991E-08-3.47728E-03-2.01544E-05
 -1       241-5.72349E-06-3.45329E-03-1.44999E-05
 -1       242 1.11555E-08-3.57383E-03 8.83262E-05
 -1       243 1.38880E-08-3.65575E-03-2.13551E-05
 -1       244 1.95736E-08-3.52078E-03-2.07108E-05
 -1       245-3.35067E-05-3.61172E-03-2.62949E-05
 -1       246 1.30217E-08-3.65182E-03-1.98669E-05
 -1       247 3.35255E-05-3.61172E-03-2.62994E-05
 -1       248 1.21295E-08-3.43683E-03-1.00809E-05
 -1       249 1.24451E-08-3.52265E-03-1.35617E-05
 -1       250 4.14769E-08-4.08092E-03 1.74434E-04
 -1       251 2.97594E-05-2.57191E-03-1.05483E-05
 -1       252 9.64321E-10-3.12334E-03-1.60617E-05
 -1       253-2.97579E-05-2.57196E-03-1.05415E-05
 -1       254 8.18726E-10-4.41203E-03-2.54301E-04
 -3
    1PSTEP                         2           2           1          
  100CL  102 1.00000E-02         201                     1    2           1
 -4  DISP        4    1
 -5  D1          1    2    1    0
 -5  D2          1    2    2    0
 -5  D3          1    2    3    0
 -5  ALL         1    2    0    0    1ALL
 -1         1 0.00000E+00 0.00000E+00 0.00000E+00
 -1         2 0.00000E+00 0.00000E+00 0.00000E+00
 -1         3 0.00000E+00 0.00000E+00 0.00000E+00
 -1         4 0.00000E+00 0.00000E+00 0.00000E+00
 -1         9 0.00000E+00 0.00000E+00 0.00000E+00
 -1        10 0.00000E+00 0.00000E+00 0.00000E+00
 -1        11 0.00000E+00 0.00000E+00 0.00000E+00
 -1        12 0.00000E+00 0.00000E+00 0.00000E+00
 -1        13 0.00000E+00 0.00000E+00 0.00000E+00
 -1        14 0.00000E+00 0.00000E+00 0.00000E+00
 -1        15 0.00000E+00 0.00000E+00 0.00000E+00
 -1        16 0.00000E+00 0.00000E+00 0.00000E+00
 -1        17 0.00000E+00 0.00000E+00 0.00000E+00
 -1        18 0.00000E+00 0.00000E+00 0.00000E+00
 -1        19 0.00000E+00 0.00000E+00 0.00000E+00
 -1        20 0.00000E+00 0.00000E+00 0.00000E+00
 -1        33-3.19886E-05 7.91252E-05 1.02964E-04
 -1        34-1.54994E-05 2.44658E-04 1.87664E-04
 -1        35-1.27822E-05 4.92311E-04 2.42662E-04
 -1        36-4.55714E-06 7.73957E-04 2.70015E-04
 -1        37 4.25039E-06 1.07136E-03 2.71833E-04
 -1        38 1.34261E-05 1.36695E-03 2.50298E-04
 -1        39 2.05280E-05 1.60838E-03 1.85340E-04
 -1        40 1.37604E-05 1.78300E-03 9.26745E-05
 -1        41 3.54567E-05 1.81726E-03 2.10197E-05
 -1        42 4.51966E-05 1.87059E-03 1.11724E-05
 -1        43-4.17303E-05 1.69699E-03-7.81913E-05
 -1        44-1.59056E-04 1.60533E-03-2.33753E-04
 -1        51 1.58841E-04 1.60545E-03-2.33756E-04
 -1        52 4.14782E-05 1.69710E-03-7.81944E-05
 -1        53-4.53446E-05 1.87064E-03 1.12241E-05
 -1        54-3.56372E-05 1.81731E-03 2.10191E-05
 -1        55-1.39193E-05 1.78304E-03 9.26568E-05
 -1        56-2.06828E-05 1.60843E-03 1.85323E-04
 -1        57-1.35445E-05 1.36698E-03 2.50283E-04
 -1        58-4.34985E-06 1.07139E-03 2.71814E-04
 -1        59 4.48605E-06 7.73978E-04 2.69996E-04
 -1        60 1.27328E-05 4.92327E-04 2.42645E-04
 -1        61 1.54737E-05 2.44667E-04 1.87652E-04
 -1        62 3.19783E-05 7.91283E-05 1.02957E-04
 -1        63 3.19751E-05 7.91034E-05-1.02924E-04
 -1        64 1.54778E-05 2.44646E-04-1.87587E-04
 -1        65 1.27239E-05 4.92314E-04-2.42550E-04
 -1        66 4.49676E-06 7.73968E-04-2.69875E-04
 -1        67-4.26891E-06 1.07128E-03-2.71663E-04
 -1        68-1.34465E-05 1.36690E-03-2.50088E-04
 -1        69-2.09879E-05 1.60871E-03-1.85114E-04
 -1        70-1.43531E-05 1.78368E-03-9.24518E-05
 -1        71-3.40988E-05 1.81559E-03-2.07401E-05
 -1        72-4.30034E-05 1.86804E-03-1.07300E-05
 -1        73 3.47619E-05 1.70424E-03 7.86098E-05
 -1        74 1.47458E-04 1.61890E-03 2.34048E-04
 -1        78-3.19750E-05 7.91110E-05-1.02931E-04