    1C
    1UUSER                                                              
    1UDATE              16.july.2018                                    
    1UTIME              13:18:32                                        
    1UHOST                                                              
    1UPGM               CalculiX                                        
    1UVERSION           Version 2.13                             
    1UCOMPILETIME       jue jun 14 00:40:39 CEST 2018                    
    1UDIR                                                               
    1UDBN                                                               
    1UMAT    1EL                                                        
    2C                            81                                     1
 -1         5 0.00000E+00 0.00000E+00 8.00000E+00
 -1         6 1.00000E+00 0.00000E+00 8.00000E+00
 -1         7 1.00000E+00 1.00000E+00 8.00000E+00
 -1         8 0.00000E+00 1.00000E+00 8.00000E+00
 -1        21 2.50000E-01 0.00000E+00 8.00000E+00
 -1        22 5.00000E-01 0.00000E+00 8.00000E+00
 -1        23 7.50000E-01 0.00000E+00 8.00000E+00
 -1        24 1.00000E+00 2.50000E-01 8.00000E+00
 -1        25 1.00000E+00 5.00000E-01 8.00000E+00
 -1        26 1.00000E+00 7.50000E-01 8.00000E+00
 -1        27 7.50000E-01 1.00000E+00 8.00000E+00
 -1        28 5.00000E-01 1.00000E+00 8.00000E+00
 -1        29 2.50000E-01 1.00000E+00 8.00000E+00
 -1        30 0.00000E+00 7.50000E-01 8.00000E+00
 -1        31 0.00000E+00 5.00000E-01 8.00000E+00
 -1        32 0.00000E+00 2.50000E-01 8.00000E+00
 -1        44 1.00000E+00 0.00000E+00 6.00000E+00
 -1        45 1.00000E+00 0.00000E+00 6.50000E+00
 -1        46 1.00000E+00 0.00000E+00 7.00000E+00
 -1        47 1.00000E+00 0.00000E+00 7.50000E+00
 -1        48 0.00000E+00 0.00000E+00 7.50000E+00
 -1        49 0.00000E+00 0.00000E+00 7.00000E+00
 -1        50 0.00000E+00 0.00000E+00 6.50000E+00
 -1        51 0.00000E+00 0.00000E+00 6.00000E+00
 -1        74 1.00000E+00 1.00000E+00 6.00000E+00
 -1        75 1.00000E+00 1.00000E+00 6.50000E+00
 -1        76 1.00000E+00 1.00000E+00 7.00000E+00
 -1        77 1.00000E+00 1.00000E+00 7.50000E+00
 -1        89 0.00000E+00 1.00000E+00 6.00000E+00
 -1        90 0.00000E+00 1.00000E+00 6.50000E+00
 -1        91 0.00000E+00 1.00000E+00 7.00000E+00
 -1        92 0.00000E+00 1.00000E+00 7.50000E+00
 -1        98 5.00000E-01 2.50000E-01 8.00000E+00
 -1        99 2.50000E-01 5.00000E-01 8.00000E+00
 -1       100 5.00000E-01 5.00000E-01 8.00000E+00
 -1       101 7.50000E-01 5.00000E-01 8.00000E+00
 -1       102 5.00000E-01 7.50000E-01 8.00000E+00
 -1       124 2.50000E-01 0.00000E+00 6.00000E+00
 -1       125 5.00000E-01 0.00000E+00 6.00000E+00
 -1       126 7.50000E-01 0.00000E+00 6.00000E+00
 -1       127 5.00000E-01 0.00000E+00 6.50000E+00
 -1       128 2.50000E-01 0.00000E+00 7.00000E+00
 -1       129 5.00000E-01 0.00000E+00 7.00000E+00
 -1       130 7.50000E-01 0.00000E+00 7.00000E+00
 -1       131 5.00000E-01 0.00000E+00 7.50000E+00
 -1       153 1.00000E+00 2.50000E-01 6.00000E+00
 -1       154 1.00000E+00 5.00000E-01 6.00000E+00
 -1       155 1.00000E+00 7.50000E-01 6.00000E+00
 -1       156 1.00000E+00 5.00000E-01 6.50000E+00
 -1       157 1.00000E+00 2.50000E-01 7.00000E+00
 -1       158 1.00000E+00 5.00000E-01 7.00000E+00
 -1       159 1.00000E+00 7.50000E-01 7.00000E+00
 -1       160 1.00000E+00 5.00000E-01 7.50000E+00
 -1       182 7.50000E-01 1.00000E+00 6.00000E+00
 -1       183 5.00000E-01 1.00000E+00 6.00000E+00
 -1       184 2.50000E-01 1.00000E+00 6.00000E+00
 -1       185 5.00000E-01 1.00000E+00 6.50000E+00
 -1       186 7.50000E-01 1.00000E+00 7.00000E+00
 -1       187 5.00000E-01 1.00000E+00 7.00000E+00
 -1       188 2.50000E-01 1.00000E+00 7.00000E+00
 -1       189 5.00000E-01 1.00000E+00 7.50000E+00
 -1       211 0.00000E+00 7.50000E-01 6.00000E+00
 -1       212 0.00000E+00 5.00000E-01 6.00000E+00
 -1       213 0.00000E+00 2.50000E-01 6.00000E+00
 -1       214 0.00000E+00 5.00000E-01 6.50000E+00
 -1       215 0.00000E+00 7.50000E-01 7.00000E+00
 -1       216 0.00000E+00 5.00000E-01 7.00000E+00
 -1       217 0.00000E+00 2.50000E-01 7.00000E+00
 -1       218 0.00000E+00 5.00000E-01 7.50000E+00
 -1       250 5.00000E-01 2.50000E-01 6.00000E+00
 -1       251 2.50000E-01 5.00000E-01 6.00000E+00
 -1       252 5.00000E-01 5.00000E-01 6.00000E+00
 -1       253 7.50000E-01 5.00000E-01 6.00000E+00
 -1       254 5.00000E-01 7.50000E-01 6.00000E+00
 -1       255 5.00000E-01 5.00000E-01 6.50000E+00
 -1       256 5.00000E-01 2.50000E-01 7.00000E+00
 -1       257 2.50000E-01 5.00000E-01 7.00000E+00
 -1       258 5.00000E-01 5.00000E-01 7.00000E+00
 -1       259 7.50000E-01 5.00000E-01 7.00000E+00
 -1       260 5.00000E-01 7.50000E-01 7.00000E+00
 -1       261 5.00000E-01 5.00000E-01 7.50000E+00
 -3
    3C                             8                                     1
 -1        25    4    0    1
 -2        51       125       252       212        49       129       258       216       124       250
 -2       251       213        50       127       255       214       128       256       257       217
 -1        26    4    0    1
 -2       125        44       154       252       129        46       158       258       126       153
 -2       253       250       127        45       156       255       130       157       259       256
 -1        27    4    0    1
 -2       212       252       183        89       216       258       187        91       251       254
 -2       184       211       214       255       185        90       257       260       188       215
 -1        28    4    0    1
 -2       252       154        74       183       258       158        76       187       253       155
 -2       182       254       255       156        75       185       259       159       186       260
 -1        29    4    0    1
 -2        49       129       258       216         5        22       100        31       128       256
 -2       257       217        48       131       261       218        21        98        99        32
 -1        30    4    0    1
 -2       129        46       158       258        22         6        25       100       130       157
 -2       259       256       131        47       160       261        23        24       101        98
 -1        31    4    0    1
 -2       216       258       187        91        31       100        28         8       257       260
 -2       188       215       218       261       189        92        99       102        29        30
 -1        32    4    0    1
 -2       258       158        76       187       100        25         7        28       259       159
 -2       186       260       261       160        77       189       101        26        27       102
 -3
    1PSTEP                         1           1           1          
  100CL  101 5.00000E-03          81                     1    1           1
 -4  DISP        4    1
 -5  D1          1    2    1    0
 -5  D2          1    2    2    0
 -5  D3          1    2    3    0
 -5  ALL         1    2    0    0    1ALL
 -1         5 0.00000E+00 0.00000E+00 0.00000E+00
 -1         6 0.00000E+00 0.00000E+00 0.00000E+00
 -1         7 0.00000E+00 0.00000E+00 0.00000E+00
 -1         8 0.00000E+00 0.00000E+00 0.00000E+00
 -1        21 0.00000E+00 0.00000E+00 0.00000E+00
 -1        22 0.00000E+00 0.00000E+00 0.00000E+00
 -1        23 0.00000E+00 0.00000E+00 0.00000E+00
 -1        24 0.00000E+00 0.00000E+00 0.00000E+00
 -1        25 0.00000E+00 0.00000E+00 0.00000E+00
 -1        26 0.00000E+00 0.00000E+00 0.00000E+00
 -1        27 0.00000E+00 0.00000E+00 0.00000E+00
 -1        28 0.00000E+00 0.00000E+00 0.00000E+00
 -1        29 0.00000E+00 0.00000E+00 0.00000E+00
 -1        30 0.00000E+00 0.00000E+00 0.00000E+00
 -1        31 0.00000E+00 0.00000E+00 0.00000E+00
 -1        32 0.00000E+00 0.00000E+00 0.00000E+00
 -1        44-1.54870E-04-3.63784E-03 4.41217E-04
 -1        45-9.42952E-06-2.64019E-03 7.87220E-04
 -1        46-1.31638E-05-1.75315E-03 9.45851E-04
 -1        47 1.47346E-04-6.51943E-04 5.42911E-04
 -1        48-1.46690E-04-6.52170E-04 5.42560E-04
 -1        49 1.46276E-05-1.75434E-03 9.45749E-04
 -1        50 9.20651E-06-2.63881E-03 7.87075E-04
 -1        51 1.52661E-04-3.63168E-03 4.40927E-04
 -1        74 2.39322E-04-4.31430E-03-4.92408E-04
 -1        75 1.40777E-04-2.91726E-03-7.91302E-04
 -1        76-8.17353E-05-1.63407E-03-9.53343E-04
 -1        77-1.92689E-04-5.43727E-04-5.59462E-04
 -1        89-2.37960E-04-4.31668E-03-4.92573E-04
 -1        90-1.39950E-04-2.91725E-03-7.91018E-04
 -1        91 8.24967E-05-1.63302E-03-9.52814E-04
 -1        92 1.93196E-04-5.44173E-04-5.59969E-04
 -1        98 0.00000E+00 0.00000E+00 0.00000E+00
 -1        99 0.00000E+00 0.00000E+00 0.00000E+00
 -1       100 0.00000E+00 0.00000E+00 0.00000E+00
 -1       101 0.00000E+00 0.00000E+00 0.00000E+00
 -1       102 0.00000E+00 0.00000E+00 0.00000E+00
 -1       124 1.88001E-04-2.89758E-03 4.19822E-04
 -1       125 3.68318E-06-3.68476E-03 4.42693E-04
 -1       126-1.82685E-04-2.89339E-03 4.19959E-04
 -1       127 9.90435E-07-2.58545E-03 8.85311E-04
 -1       128-2.18857E-05-1.96729E-03 9.49085E-04
 -1       129 2.98507E-07-1.79041E-03 9.36682E-04
 -1       130 2.22493E-05-1.96837E-03 9.49044E-04
 -1       131-1.40787E-07-7.28112E-04 5.53392E-04
 -1       153 9.29887E-05-3.72926E-03 1.85024E-04
 -1       154-1.28109E-04-2.51115E-03-2.51023E-05
 -1       155-3.52911E-05-3.86801E-03-2.39181E-04
 -1       156-9.72407E-05-2.77943E-03-5.43689E-05
 -1       157-2.39593E-05-1.49356E-03 3.90297E-04
 -1       158 7.94424E-05-1.57950E-03-2.32270E-05
 -1       159 4.05781E-05-1.49363E-03-4.10920E-04
 -1       160 3.47797E-05-6.58848E-04 5.82973E-06
 -1       182 8.18100E-05-2.60602E-03-4.71667E-04
 -1       183 4.61009E-06-4.30574E-03-4.76094E-04
 -1       184-7.51999E-05-2.60198E-03-4.71916E-04
 -1       185 1.06925E-06-2.84057E-03-8.81971E-04
 -1       186-3.08805E-05-2.15689E-03-9.84241E-04
 -1       187 3.73864E-07-1.83846E-03-9.70529E-04
 -1       188 3.13240E-05-2.15755E-03-9.83968E-04
 -1       189-1.32698E-07-7.19776E-04-5.65793E-04
 -1       211 3.55292E-05-3.86732E-03-2.39654E-04
 -1       212 1.32891E-04-2.51415E-03-2.54225E-05
 -1       213-9.04498E-05-3.73069E-03 1.84610E-04
 -1       214 1.00992E-04-2.77983E-03-5.51759E-05
 -1       215-4.01459E-05-1.49374E-03-4.11333E-04
 -1       216-8.07661E-05-1.57924E-03-2.41241E-05
 -1       217 2.38009E-05-1.49335E-03 3.89711E-04
 -1       218-3.50903E-05-6.58599E-04 5.56027E-06
 -1       250 5.18576E-07-4.06882E-03 1.69825E-04
 -1       251 9.77755E-06-2.57467E-03-1.36972E-05
 -1       252 1.75138E-06-3.09067E-03-1.98298E-05
 -1       253-9.39144E-06-2.57563E-03-1.32632E-05
 -1       254 8.15090E-07-4.39270E-03-2.54098E-04
 -1       255 9.82100E-07-2.60422E-03-3.51086E-05
 -1       256 6.12661E-07-1.60215E-03 3.96343E-04
 -1       257-3.16023E-05-1.74938E-03-1.38524E-05
 -1       258-9.52897E-08-1.78547E-03-1.51841E-05
 -1       259 3.17400E-05-1.74894E-03-1.32476E-05
 -1       260 6.87372E-07-1.61985E-03-4.19909E-04
 -1       261-5.19447E-08-7.18318E-04-8.52488E-07
 -3
    1PSTEP                         2           2           1          
  100CL  102 1.00000E-02          81                     1    2           1
 -4  DISP        4    1
 -5  D1          1    2    1    0
 -5  D2          1    2    2    0
 -5  D3          1    2    3    0
 -5  ALL         1    2    0    0    1ALL
 -1         5 0.00000E+00 0.00000E+00 0.00000E+00
 -1         6 0.00000E+00 0.00000E+00 0.00000E+00
 -1         7 0.00000E+00 0.00000E+00 0.00000E+00
 -1         8 0.00000E+00 0.00000E+00 0.00000E+00
 -1        21 0.00000E+00 0.00000E+00 0.00000E+00
 -1        22 0.00000E+00 0.00000E+00 0.00000E+00
 -1        23 0.00000E+00 0.00000E+00 0.00000E+00
 -1        24 0.00000E+00 0.00000E+00 0.00000E+00
 -1        25 0.00000E+00 0.00000E+00 0.00000E+00
 -1        26 0.00000E+00 0.00000E+00 0.00000E+00
 -1        27 0.00000E+00 0.00000E+00 0.00000E+00
 -1        28 0.00000E+00 0.00000E+00 0.00000E+00
 -1        29 0.00000E+00 0.00000E+00 0.00000E+00
 -1        30 0.00000E+00 0.00000E+00 0.00000E+00
 -1        31 0.00000E+00 0.00000E+00 0.00000E+00
 -1        32 0.00000E+00 0.00000E+00 0.00000E+00
 -1        44-8.72664E-05 1.74679E-03-2.12842E-04
 -1        45 1.82573E-05 1.31142E-03-3.80330E-04
 -1        46 1.65333E-05 8.90207E-04-4.31564E-04
 -1        47-6.54077E-05 3.53651E-04-2.84610E-04
 -1        48 6.48971E-05 3.53955E-04-2.84376E-04
 -1        49-1.75906E-05 8.91304E-04-4.31589E-04
 -1        50-1.76387E-05 1.31016E-03-3.80568E-04
 -1        51 9.01926E-05 1.74125E-03-2.12838E-04
 -1        74 2.28301E-04 1.53275E-03 2.18116E-04
 -1        75 7.53957E-05 1.20602E-03 3.84921E-04
 -1        76-6.55053E-05 9.52139E-04 4.37185E-04
 -1        77 4.03999E-05 3.85266E-04 2.86001E-04
 -1        89-2.28615E-04 1.53529E-03 2.18007E-04
 -1        90-7.53954E-05 1.20596E-03 3.84437E-04
 -1        91 6.49857E-05 9.51312E-04 4.36571E-04
 -1        92-4.08124E-05 3.85623E-04 2.86349E-04
 -1        98 0.00000E+00 0.00000E+00 0.00000E+00
 -1        99 0.00000E+00 0.00000E+00 0.00000E+00
 -1       100 0.00000E+00 0.00000E+00 0.00000E+00
 -1       101 0.00000E+00 0.00000E+00 0.00000E+00
 -1       102 0.00000E+00 0.00000E+00 0.00000E+00
 -1       124-2.70698E-05 1.41423E-03-1.95710E-04
 -1       125-2.66261E-06 1.84903E-03-2.12876E-04
 -1       126 2.36419E-05 1.41078E-03-1.95779E-04
 -1       127-6.01039E-07 1.32694E-03-4.00639E-04
 -1       128 7.01953E-06 9.80190E-04-4.69152E-04
 -1       129-1.96148E-07 8.72954E-04-4.73685E-04
 -1       130-7.20959E-06 9.81076E-04-4.69048E-04
 -1       131 1.42583E-07 3.67555E-04-2.72988E-04
 -1       153 1.18328E-04 2.03990E-03-9.08335E-05
 -1       154 7.43315E-06 1.73201E-03 4.24976E-06
 -1       155-1.60584E-04 1.93899E-03 9.73592E-05
 -1       156-1.77294E-05 1.40747E-03-7.51192E-06
 -1       157-2.54031E-05 7.80292E-04-1.83754E-04
 -1       158 6.48181E-06 8.24947E-04-4.77097E-06
 -1       159 3.32104E-05 8.09045E-04 1.85708E-04
 -1       160 3.92630E-06 3.09304E-04-7.57498E-07
 -1       182 4.06659E-05 1.50330E-03 2.04677E-04
 -1       183-3.80754E-06 1.73576E-03 2.18131E-04
 -1       184-4.58802E-05 1.49974E-03 2.04858E-04
 -1       185-6.64965E-07 1.31597E-03 4.21651E-04
 -1       186-1.54914E-05 9.65304E-04 4.69980E-04
 -1       187-1.87434E-07 8.99009E-04 4.83360E-04
 -1       188 1.53375E-05 9.65986E-04 4.69656E-04
 -1       189 1.46360E-07 3.74017E-04 2.76527E-04
 -1       211 1.61118E-04 1.93910E-03 9.75905E-05
 -1       212-1.07535E-05 1.73508E-03 4.01974E-06
 -1       213-1.20052E-04 2.04135E-03-9.06691E-05
 -1       214 1.50747E-05 1.40787E-03-7.13970E-06
 -1       215-3.33922E-05 8.09114E-04 1.85826E-04
 -1       216-5.15694E-06 8.24705E-04-4.20149E-06
 -1       217 2.58438E-05 7.80123E-04-1.83453E-04
 -1       218-3.58546E-06 3.09100E-04-6.36847E-07
 -1       250-1.56941E-07 1.89864E-03-9.10747E-05
 -1       251 2.14629E-05 1.18127E-03 2.60354E-06
 -1       252-1.09946E-06 1.50065E-03 3.26348E-06
 -1       253-2.09683E-05 1.18230E-03 2.68480E-06
 -1       254-1.72195E-07 1.90380E-03 9.60505E-05
 -1       255-6.69216E-07 1.39799E-03 2.75371E-06
 -1       256-3.76839E-07 7.74586E-04-2.09904E-04
 -1       257-8.19068E-06 9.21337E-04 1.58381E-06
 -1       258 2.44101E-07 7.99393E-04 6.29930E-07
 -1       259 8.31832E-06 9.20873E-04 1.11831E-06
 -1       260-4.97546E-07 7.75229E-04 2.10725E-04
 -1       261 7.87834E-08 3.49081E-04-8.84551E-07
 -3
    1PSTEP                         3           3           1          
  100CL  103 1.50000E-02          81                     1    3           1
 -4  DISP        4    1
 -5  D1          1    2    1    0
 -5  D2          1    2    2    0
 -5  D3          1    2    3    0
 -5  ALL         1    2    0    0    1ALL
 -1         5 0.00000E+00 0.00000E+00 0.00000E+00
 -1         6 0.00000E+00 0.00000E+00 0.00000E+00
 -1         7 0.00000E+00 0.00000E+00 0.00000E+00
 -1         8 0.00000E+00 0.00000E+00 0.00000E+00
 -1        21 0.00000E+00 0.00000E+00 0.00000E+00
 -1        22 0.00000E+00 0.00000E+00 0.00000E+00
 -1        23 0.00000E+00 0.00000E+00 0.00000E+00
 -1        24 0.00000E+00 0.00000E+00 0.00000E+00
 -1        25 0.00000E+00 0.00000E+00 0.00000E+00
 -1        26 0.00000E+00 0.00000E+00 0.00000E+00
 -1        27 0.00000E+00 0.00000E+00 0.00000E+00
 -1        28 0.00000E+00 0.00000E+00 0.00000E+00
 -1        29 0.00000E+00 0.00000E+00 0.00000E+00
 -1        30 0.00000E+00 0.00000E+00 0.00000E+00
 -1        31 0.00000E+00 0.00000E+00 0.00000E+00
 -1        32 0.00000E+00 0.00000E+00 0.00000E+00
 -1        44 9.61006E-05-1.38912E-03 1.43202E-04
 -1        45-1.41238E-05-1.04205E-03 3.04275E-04
 -1        46-1.80060E-05-7.20513E-04 3.44775E-04
 -1        47 4.85319E-05-2.83697E-04 2.27094E-04
 -1        48-4.85416E-05-2.83463E-04 2.27295E-04
 -1        49 1.76487E-05-7.20769E-04 3.45655E-04
 -1        50 1.30396E-05-1.04234E-03 3.04972E-04
 -1        51-9.76342E-05-1.38702E-03 1.43648E-04
 -1        74-2.19189E-04-1.20420E-03-1.47656E-04
 -1        75-6.77462E-05-9.50608E-04-3.08864E-04
 -1        76 5.88273E-05-7.72957E-04-3.49845E-04
 -1        77-2.72458E-05-3.11169E-04-2.28506E-04
 -1        89 2.17957E-04-1.20427E-03-1.47215E-04
 -1        90 6.74820E-05-9.50390E-04-3.07667E-04
 -1        91-5.94089E-05-7.72486E-04-3.49272E-04
 -1        92 2.70095E-05-3.11406E-04-2.28429E-04
 -1        98 0.00000E+00 0.00000E+00 0.00000E+00
 -1        99 0.00000E+00 0.00000E+00 0.00000E+00
 -1       100 0.00000E+00 0.00000E+00 0.00000E+00
 -1       101 0.00000E+00 0.00000E+00 0.00000E+00
 -1       102 0.00000E+00 0.00000E+00 0.00000E+00
 -1       124 1.47072E-05-1.09872E-03 1.27255E-04
 -1       125 9.69887E-07-1.48134E-03 1.45690E-04
 -1       126-1.37150E-05-1.09669E-03 1.26964E-04
 -1       127 2.28595E-08-1.06666E-03 3.13778E-04
 -1       128-5.10365E-06-7.94195E-04 3.80446E-04
 -1       129-4.46993E-07-6.95930E-04 3.84977E-04
 -1       130 4.29569E-06-7.94759E-04 3.80019E-04
 -1       131-1.27215E-07-2.88361E-04 2.15395E-04
 -1       153-1.18503E-04-1.69446E-03 5.85430E-05
 -1       154-7.12635E-06-1.42743E-03-3.53603E-06
 -1       155 1.52806E-04-1.60224E-03-6.43544E-05
 -1       156 1.45880E-05-1.12802E-03 6.60343E-06
 -1       157 2.63477E-05-6.19635E-04 1.44528E-04
 -1       158-5.75096E-06-6.64760E-04 3.79549E-06
 -1       159-3.37663E-05-6.45010E-04-1.46652E-04
 -1       160-3.54561E-06-2.44432E-04 4.74006E-07
 -1       182-5.10454E-05-1.17528E-03-1.34249E-04
 -1       183-9.09470E-07-1.38177E-03-1.49908E-04
 -1       184 4.94216E-05-1.17463E-03-1.34047E-04
 -1       185-4.08322E-08-1.05608E-03-3.31935E-04
 -1       186 1.54234E-05-7.80726E-04-3.80770E-04
 -1       187-2.59746E-07-7.18228E-04-3.93061E-04
 -1       188-1.59195E-05-7.80626E-04-3.80493E-04
 -1       189-6.94217E-08-2.93795E-04-2.18259E-04
 -1       211-1.54065E-04-1.59987E-03-6.38976E-05
 -1       212 8.27247E-06-1.42642E-03-3.21914E-06
 -1       213 1.16548E-04-1.69416E-03 5.91142E-05
 -1       214-1.39585E-05-1.12801E-03 6.84447E-06
 -1       215 3.30296E-05-6.45228E-04-1.46364E-04
 -1       216 4.21942E-06-6.64756E-04 4.09991E-06
 -1       217-2.68623E-05-6.19481E-04 1.44987E-04
 -1       218 3.18895E-06-2.44355E-04 5.75885E-07
 -1       250-8.47674E-07-1.50941E-03 5.89538E-05
 -1       251-2.13268E-05-8.89273E-04-2.16652E-06
 -1       252 7.16733E-07-1.15255E-03-2.49549E-06
 -1       253 2.03019E-05-8.89010E-04-2.23775E-06
 -1       254-1.32114E-08-1.51802E-03-6.25451E-05
 -1       255-4.31458E-07-1.13752E-03-2.05529E-06
 -1       256 9.58771E-08-6.05240E-04 1.70026E-04
 -1       257 7.51369E-06-7.41903E-04-1.06613E-06
 -1       258-1.14896E-07-6.19966E-04-4.78221E-07
 -1       259-7.82404E-06-7.42076E-04-1.08125E-06
 -1       260-2.10005E-07-6.04524E-04-1.70593E-04
 -1       261-1.15900E-07-2.77225E-04 7.30529E-07
 -3
    1PSTEP                         4           4           1          
  100CL  104 2.00000E-02          81                     1    4           1
 -4  DISP        4    1
 -5  D1          1    2    1    0
 -5  D2          1    2    2    0
 -5  D3          1    2    3    0
 -5  ALL         1    2    0    0    1ALL
 -1         5 0.00000E+00 0.00000E+00 0.00000E+00
 -1         6 0.00000E+00 0.00000E+00 0.00000E+00
 -1         7 0.00000E+00 0.00000E+00 0.00000E+00
 -1         8 0.00000E+00 0.00000E+00 0.00000E+00
 -1        21 0.00000E+00 0.00000E+00 0.00000E+00
 -1        22 0.00000E+00 0.00000E+00 0.00000E+00
 -1        23 0.00000E+00 0.00000E+00 0.00000E+00
 -1        24 0.00000E+00 0.00000E+00 0.00000E+00
 -1        25 0.00000E+00 0.00000E+00 0.00000E+00
 -1        26 0.00000E+00 0.00000E+00 0.00000E+00
 -1        27 0.00000E+00 0.00000E+00 0.00000E+00
 -1        28 0.00000E+00 0.00000E+00 0.00000E+00
 -1        29 0.00000E+00 0.00000E+00 0.00000E+00
 -1        30 0.00000E+00 0.00000E+00 0.00000E+00
 -1        31 0.00000E+00 0.00000E+00 0.00000E+00
 -1        32 0.00000E+00 0.00000E+00 0.00000E+00
 -1        44-1.05122E-04 1.08096E-03-7.91714E-05
 -1        45 9.94058E-06 8.09556E-04-2.41920E-04
 -1        46 1.82726E-05 5.80831E-04-2.72689E-04
 -1        47-3.40877E-05 2.25384E-04-1.78588E-04
 -1        48 3.36315E-05 2.25271E-04-1.78436E-04
 -1        49-1.89439E-05 5.81326E-04-2.73111E-04
 -1        50-9.62413E-06 8.09391E-04-2.41733E-04
 -1        51 1.05349E-04 1.07766E-03-7.90740E-05
 -1        74 2.06626E-04 9.34179E-04 8.21840E-05
 -1        75 5.60558E-05 7.36133E-04 2.44461E-04
 -1        76-5.30222E-05 6.23219E-04 2.76033E-04
 -1        77 1.61706E-05 2.47332E-04 1.79412E-04
 -1        89-2.06759E-04 9.34973E-04 8.22653E-05
 -1        90-5.68052E-05 7.36448E-04 2.44227E-04
 -1        91 5.26439E-05 6.22676E-04 2.76236E-04
 -1        92-1.62493E-05 2.47388E-04 1.79677E-04
 -1        98 0.00000E+00 0.00000E+00 0.00000E+00
 -1        99 0.00000E+00 0.00000E+00 0.00000E+00
 -1       100 0.00000E+00 0.00000E+00 0.00000E+00
 -1       101 0.00000E+00 0.00000E+00 0.00000E+00
 -1       102 0.00000E+00 0.00000E+00 0.00000E+00
 -1       124-2.68466E-06 8.31111E-04-6.25981E-05
 -1       125-3.57744E-06 1.16215E-03-8.40753E-05
 -1       126-2.24675E-06 8.28008E-04-6.26312E-05
 -1       127-6.33251E-07 8.45668E-04-2.39191E-04
 -1       128 1.57268E-06 6.37983E-04-3.06465E-04
 -1       129-4.13635E-08 5.47536E-04-3.11193E-04
 -1       130-1.58433E-06 6.38824E-04-3.06247E-04
 -1       131 1.19166E-07 2.20828E-04-1.66062E-04
 -1       153 1.17666E-04 1.41163E-03-2.88245E-05
 -1       154 7.32213E-06 1.17730E-03 2.48151E-06
 -1       155-1.49323E-04 1.34201E-03 3.27878E-05
 -1       156-1.12829E-05 8.92679E-04-5.66724E-06
 -1       157-2.81239E-05 4.83792E-04-1.11495E-04
 -1       158 3.71964E-06 5.29995E-04-3.33716E-06
 -1       159 3.40315E-05 5.03471E-04 1.12635E-04
 -1       160 2.45651E-06 1.88928E-04-5.07053E-07
 -1       182 4.88879E-05 8.90030E-04 6.80178E-05
 -1       183-6.45639E-07 1.08660E-03 8.72165E-05
 -1       184-5.02815E-05 8.89112E-04 6.81639E-05
 -1       185-4.15924E-07 8.39399E-04 2.53921E-04
 -1       186-1.45616E-05 6.27654E-04 3.06640E-04
 -1       187-2.90128E-07 5.63446E-04 3.17805E-04
 -1       188 1.42362E-05 6.27682E-04 3.06682E-04
 -1       189 2.45510E-08 2.24540E-04 1.68301E-04
 -1       211 1.48074E-04 1.33972E-03 3.30226E-05
 -1       212-9.88068E-06 1.17540E-03 2.66339E-06
 -1       213-1.17710E-04 1.41041E-03-2.86778E-05
 -1       214 9.41681E-06 8.92620E-04-5.27763E-06
 -1       215-3.39549E-05 5.03636E-04 1.13040E-04
 -1       216-3.06351E-06 5.30067E-04-2.88576E-06
 -1       217 2.78355E-05 4.83780E-04-1.11373E-04
 -1       218-2.28483E-06 1.88893E-04-3.84619E-07
 -1       250 3.04362E-07 1.17983E-03-2.90046E-05
 -1       251 1.40069E-05 6.28844E-04 1.81921E-06
 -1       252-8.57260E-07 8.52711E-04 1.94950E-06
 -1       253-1.42598E-05 6.28342E-04 1.66296E-06
 -1       254-8.42256E-07 1.18517E-03 3.16861E-05
 -1       255-5.31740E-07 9.23466E-04 1.66268E-06
 -1       256-5.55808E-07 4.58445E-04-1.36799E-04
 -1       257-5.56777E-06 5.91521E-04 1.00149E-06
 -1       258 8.54325E-08 4.62693E-04 3.71819E-07
 -1       259 5.53366E-06 5.91807E-04 6.79345E-07
 -1       260-9.05686E-08 4.57709E-04 1.37235E-04
 -1       261 3.06801E-08 2.15249E-04-5.24453E-07
 -3
    1PSTEP                         5           5           1          
  100CL  105 2.50000E-02          81                     1    5           1
 -4  DISP        4    1
 -5  D1          1    2    1    0
 -5  D2          1    2    2    0
 -5  D3          1    2    3    0
 -5  ALL         1    2    0    0    1ALL
 -1         5 0.00000E+00 0.00000E+00 0.00000E+00
 -1         6 0.00000E+00 0.00000E+00 0.00000E+00
 -1         7 0.00000E+00 0.00000E+00 0.00000E+00
 -1         8 0.00000E+00 0.00000E+00 0.00000E+00
 -1        21 0.00000E+00 0.00000E+00 0.00000E+00
 -1        22 0.00000E+00 0.00000E+00 0.00000E+00
 -1        23 0.00000E+00 0.00000E+00 0.00000E+00
 -1        24 0.00000E+00 0.00000E+00 0.00000E+00
 -1        25 0.00000E+00 0.00000E+00 0.00000E+00
 -1        26 0.00000E+00 0.00000E+00 0.00000E+00
 -1        27 0.00000E+00 0.00000E+00 0.00000E+00
 -1        28 0.00000E+00 0.00000E+00 0.00000E+00
 -1        29 0.00000E+00 0.00000E+00 0.00000E+00
 -1        30 0.00000E+00 0.00000E+00 0.00000E+00
 -1        31 0.00000E+00 0.00000E+00 0.00000E+00
 -1        32 0.00000E+00 0.00000E+00 0.00000E+00
 -1        44 1.17121E-04-8.18192E-04 2.13530E-05
 -1        45-6.06336E-06-6.11700E-04 1.88074E-04
 -1        46-2.00651E-05-4.63289E-04 2.11136E-04
 -1        47 2.09702E-05-1.76006E-04 1.37244E-04
 -1        48-2.05436E-05-1.75930E-04 1.37194E-04
 -1        49 2.05752E-05-4.63791E-04 2.11775E-04
 -1        50 5.24015E-06-6.11511E-04 1.88045E-04
 -1        51-1.18180E-04-8.14892E-04 2.13855E-05
 -1        74-2.02314E-04-6.99448E-04-2.37301E-05
 -1        75-4.85462E-05-5.51917E-04-1.90198E-04
 -1        76 4.87505E-05-4.97794E-04-2.13847E-04
 -1        77-6.17579E-06-1.93865E-04-1.37941E-04
 -1        89 2.01567E-04-7.00332E-04-2.37846E-05
 -1        90 4.87713E-05-5.52364E-04-1.89829E-04
 -1        91-4.84855E-05-4.97253E-04-2.13915E-04
 -1        92 6.19951E-06-1.93810E-04-1.38076E-04
 -1        98 0.00000E+00 0.00000E+00 0.00000E+00
 -1        99 0.00000E+00 0.00000E+00 0.00000E+00
 -1       100 0.00000E+00 0.00000E+00 0.00000E+00
 -1       101 0.00000E+00 0.00000E+00 0.00000E+00
 -1       102 0.00000E+00 0.00000E+00 0.00000E+00
 -1       124-1.01768E-05-5.99284E-04 4.51098E-06
 -1       125 3.13932E-06-8.93471E-04 2.87008E-05
 -1       126 1.40289E-05-5.96360E-04 4.45427E-06
 -1       127 4.27801E-07-6.59343E-04 1.75402E-04
 -1       128 1.04493E-06-5.06976E-04 2.44374E-04
 -1       129-7.77319E-08-4.21151E-04 2.49378E-04
 -1       130-1.17516E-06-5.07769E-04 2.44075E-04
 -1       131-1.31283E-07-1.62798E-04 1.23878E-04
 -1       153-1.21853E-04-1.17848E-03 1.55646E-06
 -1       154-7.34216E-06-9.69301E-04-1.96346E-06
 -1       155 1.48193E-04-1.12377E-03-4.84461E-06
 -1       156 8.53283E-06-6.93710E-04 4.67761E-06
 -1       157 3.01404E-05-3.67946E-04 8.29151E-05
 -1       158-2.85625E-06-4.16037E-04 2.59288E-06
 -1       159-3.54331E-05-3.83563E-04-8.39774E-05
 -1       160-1.87377E-06-1.41494E-04 3.62010E-07
 -1       182-5.19563E-05-6.45930E-04-8.68045E-06
 -1       183-9.57270E-08-8.33990E-04-3.12796E-05
 -1       184 5.19950E-05-6.45280E-04-8.67288E-06
 -1       185 2.04824E-07-6.55068E-04-1.87467E-04
 -1       186 1.40624E-05-4.98730E-04-2.44437E-04
 -1       187 1.64620E-07-4.33150E-04-2.54752E-04
 -1       188-1.38750E-05-4.98707E-04-2.44447E-04
 -1       189-2.65948E-08-1.65515E-04-1.25634E-04
 -1       211-1.47194E-04-1.12145E-03-4.89579E-06
 -1       212 8.97819E-06-9.66957E-04-2.17955E-06
 -1       213 1.21329E-04-1.17692E-03 1.64262E-06
 -1       214-7.26459E-06-6.93604E-04 4.45947E-06
 -1       215 3.51047E-05-3.83719E-04-8.42099E-05
 -1       216 2.13061E-06-4.16137E-04 2.38290E-06
 -1       217-3.00489E-05-3.67969E-04 8.29879E-05
 -1       218 1.68783E-06-1.41482E-04 3.39130E-07
 -1       250-5.78497E-07-9.00159E-04 1.83889E-06
 -1       251-1.05867E-05-4.01352E-04-1.51651E-06
 -1       252 5.83404E-07-5.93065E-04-1.35445E-06
 -1       253 1.02507E-05-4.00752E-04-1.32957E-06
 -1       254 6.06467E-07-9.03900E-04-3.74494E-06
 -1       255 2.74804E-07-7.43745E-04-1.28811E-06
 -1       256 4.52242E-07-3.32392E-04 1.08819E-04
 -1       257 4.23654E-06-4.64712E-04-7.53628E-07
 -1       258-1.29763E-07-3.27564E-04-3.09899E-07
 -1       259-4.31128E-06-4.65058E-04-5.68184E-07
 -1       260-6.02512E-08-3.31650E-04-1.09167E-04
 -1       261-4.77914E-08-1.62621E-04 3.87741E-07
 -3
    1PSTEP                         6           6           1          
  100CL  106 3.00000E-02          81                     1    6           1
 -4  DISP        4    1
 -5  D1          1    2    1    0
 -5  D2          1    2    2    0
 -5  D3          1    2    3    0
 -5  ALL         1    2    0    0    1ALL
 -1         5 0.00000E+00 0.00000E+00 0.00000E+00
 -1         6 0.00000E+00 0.00000E+00 0.00000E+00
 -1         7 0.00000E+00 0.00000E+00 0.00000E+00
 -1         8 0.00000E+00 0.00000E+00 0.00000E+00
 -1        21 0.00000E+00 0.00000E+00 0.00000E+00
 -1        22 0.00000E+00 0.00000E+00 0.00000E+00
 -1        23 0.00000E+00 0.00000E+00 0.00000E+00
 -1        24 0.00000E+00 0.00000E+00 0.00000E+00
 -1        25 0.00000E+00 0.00000E+00 0.00000E+00
 -1        26 0.00000E+00 0.00000E+00 0.00000E+00
 -1        27 0.00000E+00 0.00000E+00 0.00000E+00
 -1        28 0.00000E+00 0.00000E+00 0.00000E+00
 -1        29 0.00000E+00 0.00000E+00 0.00000E+00
 -1        30 0.00000E+00 0.00000E+00 0.00000E+00
 -1        31 0.00000E+00 0.00000E+00 0.00000E+00
 -1        32 0.00000E+00 0.00000E+00 0.00000E+00
 -1        44-1.30442E-04 5.93045E-04 2.82070E-05
 -1        45 1.05093E-06 4.42598E-04-1.43381E-04
 -1        46 2.18708E-05 3.64844E-04-1.59419E-04
 -1        47-9.58195E-06 1.34775E-04-1.02390E-04