    1C
    1UUSER                                                              
    1UDATE              16.july.2018                                    
    1UTIME              13:00:07                                        
    1UHOST                                                              
    1UPGM               CalculiX                                        
    1UVERSION           Version 2.13                             
    1UCOMPILETIME       jue jun 14 00:40:39 CEST 2018                    
    1UDIR                                                               
    1UDBN                                                               
    1UMAT    1EL                                                        
    2C                            81                                     1
 -1         5 0.00000E+00 0.00000E+00 8.00000E+00
 -1         6 1.00000E+00 0.00000E+00 8.00000E+00
 -1         7 1.00000E+00 1.00000E+00 8.00000E+00
 -1         8 0.00000E+00 1.00000E+00 8.00000E+00
 -1        21 2.50000E-01 0.00000E+00 8.00000E+00
 -1        22 5.00000E-01 0.00000E+00 8.00000E+00
 -1        23 7.50000E-01 0.00000E+00 8.00000E+00
 -1        24 1.00000E+00 2.50000E-01 8.00000E+00
 -1        25 1.00000E+00 5.00000E-01 8.00000E+00
 -1        26 1.00000E+00 7.50000E-01 8.00000E+00
 -1        27 7.50000E-01 1.00000E+00 8.00000E+00
 -1        28 5.00000E-01 1.00000E+00 8.00000E+00
 -1        29 2.50000E-01 1.00000E+00 8.00000E+00
 -1        30 0.00000E+00 7.50000E-01 8.00000E+00
 -1        31 0.00000E+00 5.00000E-01 8.00000E+00
 -1        32 0.00000E+00 2.50000E-01 8.00000E+00
 -1        44 1.00000E+00 0.00000E+00 6.00000E+00
 -1        45 1.00000E+00 0.00000E+00 6.50000E+00
 -1        46 1.00000E+00 0.00000E+00 7.00000E+00
 -1        47 1.00000E+00 0.00000E+00 7.50000E+00
 -1        48 0.00000E+00 0.00000E+00 7.50000E+00
 -1        49 0.00000E+00 0.00000E+00 7.00000E+00
 -1        50 0.00000E+00 0.00000E+00 6.50000E+00
 -1        51 0.00000E+00 0.00000E+00 6.00000E+00
 -1        74 1.00000E+00 1.00000E+00 6.00000E+00
 -1        75 1.00000E+00 1.00000E+00 6.50000E+00
 -1        76 1.00000E+00 1.00000E+00 7.00000E+00
 -1        77 1.00000E+00 1.00000E+00 7.50000E+00
 -1        89 0.00000E+00 1.00000E+00 6.00000E+00
 -1        90 0.00000E+00 1.00000E+00 6.50000E+00
 -1        91 0.00000E+00 1.00000E+00 7.00000E+00
 -1        92 0.00000E+00 1.00000E+00 7.50000E+00
 -1        98 5.00000E-01 2.50000E-01 8.00000E+00
 -1        99 2.50000E-01 5.00000E-01 8.00000E+00
 -1       100 5.00000E-01 5.00000E-01 8.00000E+00
 -1       101 7.50000E-01 5.00000E-01 8.00000E+00
 -1       102 5.00000E-01 7.50000E-01 8.00000E+00
 -1       124 2.50000E-01 0.00000E+00 6.00000E+00
 -1       125 5.00000E-01 0.00000E+00 6.00000E+00
 -1       126 7.50000E-01 0.00000E+00 6.00000E+00
 -1       127 5.00000E-01 0.00000E+00 6.50000E+00
 -1       128 2.50000E-01 0.00000E+00 7.00000E+00
 -1       129 5.00000E-01 0.00000E+00 7.00000E+00
 -1       130 7.50000E-01 0.00000E+00 7.00000E+00
 -1       131 5.00000E-01 0.00000E+00 7.50000E+00
 -1       153 1.00000E+00 2.50000E-01 6.00000E+00
 -1       154 1.00000E+00 5.00000E-01 6.00000E+00
 -1       155 1.00000E+00 7.50000E-01 6.00000E+00
 -1       156 1.00000E+00 5.00000E-01 6.50000E+00
 -1       157 1.00000E+00 2.50000E-01 7.00000E+00
 -1       158 1.00000E+00 5.00000E-01 7.00000E+00
 -1       159 1.00000E+00 7.50000E-01 7.00000E+00
 -1       160 1.00000E+00 5.00000E-01 7.50000E+00
 -1       182 7.50000E-01 1.00000E+00 6.00000E+00
 -1       183 5.00000E-01 1.00000E+00 6.00000E+00
 -1       184 2.50000E-01 1.00000E+00 6.00000E+00
 -1       185 5.00000E-01 1.00000E+00 6.50000E+00
 -1       186 7.50000E-01 1.00000E+00 7.00000E+00
 -1       187 5.00000E-01 1.00000E+00 7.00000E+00
 -1       188 2.50000E-01 1.00000E+00 7.00000E+00
 -1       189 5.00000E-01 1.00000E+00 7.50000E+00
 -1       211 0.00000E+00 7.50000E-01 6.00000E+00
 -1       212 0.00000E+00 5.00000E-01 6.00000E+00
 -1       213 0.00000E+00 2.50000E-01 6.00000E+00
 -1       214 0.00000E+00 5.00000E-01 6.50000E+00
 -1       215 0.00000E+00 7.50000E-01 7.00000E+00
 -1       216 0.00000E+00 5.00000E-01 7.00000E+00
 -1       217 0.00000E+00 2.50000E-01 7.00000E+00
 -1       218 0.00000E+00 5.00000E-01 7.50000E+00
 -1       250 5.00000E-01 2.50000E-01 6.00000E+00
 -1       251 2.50000E-01 5.00000E-01 6.00000E+00
 -1       252 5.00000E-01 5.00000E-01 6.00000E+00
 -1       253 7.50000E-01 5.00000E-01 6.00000E+00
 -1       254 5.00000E-01 7.50000E-01 6.00000E+00
 -1       255 5.00000E-01 5.00000E-01 6.50000E+00
 -1       256 5.00000E-01 2.50000E-01 7.00000E+00
 -1       257 2.50000E-01 5.00000E-01 7.00000E+00
 -1       258 5.00000E-01 5.00000E-01 7.00000E+00
 -1       259 7.50000E-01 5.00000E-01 7.00000E+00
 -1       260 5.00000E-01 7.50000E-01 7.00000E+00
 -1       261 5.00000E-01 5.00000E-01 7.50000E+00
 -3
    3C                             8                                     1
 -1        25    4    0    1
 -2        51       125       252       212        49       129       258       216       124       250
 -2       251       213        50       127       255       214       128       256       257       217
 -1        26    4    0    1
 -2       125        44       154       252       129        46       158       258       126       153
 -2       253       250       127        45       156       255       130       157       259       256
 -1        27    4    0    1
 -2       212       252       183        89       216       258       187        91       251       254
 -2       184       211       214       255       185        90       257       260       188       215
 -1        28    4    0    1
 -2       252       154        74       183       258       158        76       187       253       155
 -2       182       254       255       156        75       185       259       159       186       260
 -1        29    4    0    1
 -2        49       129       258       216         5        22       100        31       128       256
 -2       257       217        48       131       261       218        21        98        99        32
 -1        30    4    0    1
 -2       129        46       158       258        22         6        25       100       130       157
 -2       259       256       131        47       160       261        23        24       101        98
 -1        31    4    0    1
 -2       216       258       187        91        31       100        28         8       257       260
 -2       188       215       218       261       189        92        99       102        29        30
 -1        32    4    0    1
 -2       258       158        76       187       100        25         7        28       259       159
 -2       186       260       261       160        77       189       101        26        27       102
 -3
    1PSTEP                         1           1           1          
  100CL  101 5.00000E-03          81                     1    1           1
 -4  DISP        4    1
 -5  D1          1    2    1    0
 -5  D2          1    2    2    0
 -5  D3          1    2    3    0
 -5  ALL         1    2    0    0    1ALL
 -1         5 0.00000E+00 0.00000E+00 0.00000E+00
 -1         6 0.00000E+00 0.00000E+00 0.00000E+00
 -1         7 0.00000E+00 0.00000E+00 0.00000E+00
 -1         8 0.00000E+00 0.00000E+00 0.00000E+00
 -1        21 0.00000E+00 0.00000E+00 0.00000E+00
 -1        22 0.00000E+00 0.00000E+00 0.00000E+00
 -1        23 0.00000E+00 0.00000E+00 0.00000E+00
 -1        24 0.00000E+00 0.00000E+00 0.00000E+00
 -1        25 0.00000E+00 0.00000E+00 0.00000E+00
 -1        26 0.00000E+00 0.00000E+00 0.00000E+00
 -1        27 0.00000E+00 0.00000E+00 0.00000E+00
 -1        28 0.00000E+00 0.00000E+00 0.00000E+00
 -1        29 0.00000E+00 0.00000E+00 0.00000E+00
 -1        30 0.00000E+00 0.00000E+00 0.00000E+00
 -1        31 0.00000E+00 0.00000E+00 0.00000E+00
 -1        32 0.00000E+00 0.00000E+00 0.00000E+00
 -1        44-2.90798E-04-3.88803E-03 4.03938E-04
 -1        45-1.07467E-04-2.75365E-03 8.02448E-04
 -1        46 3.09259E-05-1.71171E-03 9.44870E-04
 -1        47 1.67693E-04-6.28946E-04 5.43429E-04
 -1        48-1.65384E-04-6.30040E-04 5.43207E-04
 -1        49-2.78654E-05-1.71448E-03 9.44794E-04
 -1        50 1.01390E-04-2.74784E-03 8.04292E-04
 -1        51 2.69334E-04-3.86739E-03 4.03587E-04
 -1        74 8.71887E-05-4.32320E-03-4.53665E-04
 -1        75 8.41846E-05-2.88931E-03-8.04286E-04
 -1        76-4.55655E-05-1.67710E-03-9.58287E-04
 -1        77-1.71741E-04-5.48397E-04-5.65320E-04
 -1        89-8.40679E-05-4.31753E-03-4.53543E-04
 -1        90-8.36453E-05-2.88902E-03-8.01183E-04
 -1        91 4.66619E-05-1.67466E-03-9.57975E-04
 -1        92 1.71866E-04-5.50339E-04-5.66152E-04
 -1        98 0.00000E+00 0.00000E+00 0.00000E+00
 -1        99 0.00000E+00 0.00000E+00 0.00000E+00
 -1       100 0.00000E+00 0.00000E+00 0.00000E+00
 -1       101 0.00000E+00 0.00000E+00 0.00000E+00
 -1       102 0.00000E+00 0.00000E+00 0.00000E+00
 -1       124 2.45362E-04-2.78845E-03 3.73932E-04
 -1       125 5.99235E-06-3.81652E-03 4.08936E-04
 -1       126-2.46193E-04-2.77865E-03 3.74008E-04
 -1       127 3.40883E-06-2.63218E-03 8.55018E-04
 -1       128-4.06539E-05-2.00256E-03 9.58778E-04
 -1       129-2.22832E-06-1.76161E-03 9.39160E-04
 -1       130 3.90594E-05-2.00574E-03 9.59006E-04
 -1       131-8.78739E-07-7.16275E-04 5.46889E-04
 -1       153 1.08915E-04-3.97064E-03 1.61348E-04
 -1       154-1.92885E-04-2.58173E-03-2.74582E-05
 -1       155 5.57457E-05-3.98351E-03-2.24626E-04
 -1       156-9.84947E-05-2.76044E-03-4.01726E-05
 -1       157-2.33294E-05-1.47835E-03 3.86771E-04
 -1       158 8.90541E-05-1.62912E-03-1.28463E-05
 -1       159 1.88993E-05-1.52017E-03-4.04397E-04
 -1       160 3.60667E-05-6.65792E-04 1.07477E-05
 -1       182-4.88114E-06-2.57945E-03-4.39077E-04
 -1       183-3.94461E-06-4.38149E-03-4.48127E-04
 -1       184 4.82253E-06-2.57933E-03-4.39690E-04
 -1       185 2.17678E-06-2.92948E-03-8.78172E-04
 -1       186-1.06789E-05-2.18863E-03-9.97461E-04
 -1       187-8.31598E-07-1.81857E-03-9.93520E-04
 -1       188 9.92251E-06-2.18660E-03-9.97414E-04
 -1       189 2.82537E-07-6.95514E-04-5.64552E-04
 -1       211-5.89921E-05-3.97692E-03-2.25324E-04
 -1       212 1.98371E-04-2.59386E-03-2.72536E-05
 -1       213-1.01292E-04-3.97364E-03 1.60748E-04
 -1       214 1.01656E-04-2.76236E-03-4.29293E-05
 -1       215-1.71936E-05-1.52070E-03-4.05005E-04
 -1       216-9.05172E-05-1.62770E-03-1.37927E-05
 -1       217 2.05642E-05-1.47722E-03 3.86584E-04
 -1       218-3.56947E-05-6.64280E-04 1.01220E-05
 -1       250-2.83762E-06-4.00554E-03 1.44816E-04
 -1       251-6.81805E-06-2.54296E-03-9.22609E-06
 -1       252 6.99020E-06-2.95012E-03-2.36995E-05
 -1       253 1.26179E-05-2.54777E-03-9.03949E-06
 -1       254 2.36269E-06-4.38933E-03-2.37686E-04
 -1       255-1.71649E-07-2.64358E-03-4.15973E-05
 -1       256 1.58114E-06-1.58769E-03 4.05168E-04
 -1       257-2.50174E-05-1.76036E-03-1.26779E-05
 -1       258 1.04014E-06-1.76180E-03-1.16146E-05
 -1       259 2.62560E-05-1.75856E-03-1.18324E-05
 -1       260-1.19480E-08-1.59318E-03-4.25106E-04
 -1       261-1.89024E-07-7.24605E-04 2.16002E-06
 -3
    1PSTEP                         2           2           1          
  100CL  102 1.00000E-02          81                     1    2           1
 -4  DISP        4    1
 -5  D1          1    2    1    0
 -5  D2          1    2    2    0
 -5  D3          1    2    3    0
 -5  ALL         1    2    0    0    1ALL
 -1         5 0.00000E+00 0.00000E+00 0.00000E+00
 -1         6 0.00000E+00 0.00000E+00 0.00000E+00
 -1         7 0.00000E+00 0.00000E+00 0.00000E+00
 -1         8 0.00000E+00 0.00000E+00 0.00000E+00
 -1        21 0.00000E+00 0.00000E+00 0.00000E+00
 -1        22 0.00000E+00 0.00000E+00 0.00000E+00
 -1        23 0.00000E+00 0.00000E+00 0.00000E+00
 -1        24 0.00000E+00 0.00000E+00 0.00000E+00
 -1        25 0.00000E+00 0.00000E+00 0.00000E+00
 -1        26 0.00000E+00 0.00000E+00 0.00000E+00
 -1        27 0.00000E+00 0.00000E+00 0.00000E+00
 -1        28 0.00000E+00 0.00000E+00 0.00000E+00
 -1        29 0.00000E+00 0.00000E+00 0.00000E+00
 -1        30 0.00000E+00 0.00000E+00 0.00000E+00
 -1        31 0.00000E+00 0.00000E+00 0.00000E+00
 -1        32 0.00000E+00 0.00000E+00 0.00000E+00
 -1        44-7.85401E-05 1.97833E-03-6.43149E-05
 -1        45 1.01592E-04 1.41547E-03-4.10108E-04
 -1        46-4.10712E-06 9.26110E-04-4.46558E-04
 -1        47-6.96208E-05 3.49361E-04-2.91962E-04
 -1        48 6.76221E-05 3.50409E-04-2.91881E-04
 -1        49 1.43347E-06 9.28680E-04-4.46709E-04
 -1        50-9.56742E-05 1.41030E-03-4.11982E-04
 -1        51 9.80699E-05 1.96022E-03-6.43715E-05
 -1        74 4.96984E-04 1.52892E-03 6.81434E-05
 -1        75 1.42178E-04 1.17206E-03 4.12046E-04
 -1        76-1.21871E-04 1.06834E-03 4.58093E-04
 -1        77 4.23779E-06 4.09431E-04 2.98329E-04
 -1        89-4.99316E-04 1.52346E-03 6.75899E-05
 -1        90-1.42302E-04 1.17170E-03 4.09154E-04
 -1        91 1.21148E-04 1.06625E-03 4.57625E-04
 -1        92-4.26693E-06 4.11107E-04 2.98953E-04
 -1        98 0.00000E+00 0.00000E+00 0.00000E+00
 -1        99 0.00000E+00 0.00000E+00 0.00000E+00
 -1       100 0.00000E+00 0.00000E+00 0.00000E+00
 -1       101 0.00000E+00 0.00000E+00 0.00000E+00
 -1       102 0.00000E+00 0.00000E+00 0.00000E+00
 -1       124-4.67610E-05 1.22836E-03-2.59790E-05
 -1       125-4.77980E-06 2.01695E-03-7.89372E-05
 -1       126 4.80251E-05 1.21967E-03-2.57417E-05
 -1       127-2.77784E-06 1.43110E-03-3.58104E-04
 -1       128 1.78016E-05 1.08771E-03-5.16492E-04
 -1       129 2.01200E-06 8.69230E-04-5.18908E-04
 -1       130-1.62718E-05 1.09044E-03-5.16593E-04
 -1       131 7.70434E-07 3.44670E-04-2.62689E-04
 -1       153 2.01094E-04 2.59398E-03-9.02930E-06
 -1       154 6.92342E-05 2.02953E-03 5.88326E-06
 -1       155-3.46197E-04 2.36508E-03 2.44662E-05
 -1       156-1.69753E-05 1.44983E-03-2.14484E-05
 -1       157-5.28349E-05 7.72358E-04-1.77069E-04
 -1       158-2.65079E-06 9.14765E-04-1.42800E-05
 -1       159 8.10468E-05 8.41937E-04 1.76750E-04
 -1       160 2.87350E-06 3.11789E-04-4.97703E-06
 -1       182 1.65541E-04 1.39801E-03 4.74911E-05
 -1       183 3.62084E-06 1.84643E-03 8.79092E-05
 -1       184-1.65270E-04 1.39779E-03 4.76824E-05
 -1       185-1.68291E-06 1.45800E-03 4.05737E-04
 -1       186-4.32630E-05 1.06783E-03 5.20182E-04
 -1       187 7.94860E-07 9.03876E-04 5.47784E-04
 -1       188 4.41457E-05 1.06605E-03 5.20051E-04
 -1       189-2.18504E-07 3.40042E-04 2.70992E-04
 -1       211 3.49835E-04 2.35910E-03 2.46407E-05
 -1       212-7.32513E-05 2.03999E-03 5.38170E-06
 -1       213-2.06980E-04 2.59674E-03-9.00164E-06
 -1       214 1.46698E-05 1.45144E-03-1.92898E-05
 -1       215-8.23804E-05 8.42432E-04 1.77109E-04
 -1       216 4.09283E-06 9.13593E-04-1.36152E-05
 -1       217 5.53384E-05 7.71421E-04-1.77051E-04
 -1       218-3.10538E-06 3.10498E-04-4.54562E-06
 -1       250 2.97211E-06 1.87016E-03-9.00766E-06
 -1       251 4.07072E-05 9.31754E-04-9.66460E-07
 -1       252-5.46237E-06 1.22599E-03 7.51399E-06
 -1       253-4.48419E-05 9.35860E-04-9.92425E-07
 -1       254-1.57753E-06 1.93821E-03 2.03436E-05
 -1       255 3.34712E-07 1.57035E-03 8.64218E-06
 -1       256-1.26042E-06 7.20797E-04-2.33947E-04
 -1       257-1.51848E-05 9.84796E-04 7.57438E-07
 -1       258-7.66531E-07 7.13686E-04-2.43254E-06
 -1       259 1.43478E-05 9.83233E-04 1.14452E-07
 -1       260 1.01210E-07 7.07947E-04 2.31893E-04
 -1       261 1.80253E-07 3.54774E-04-3.49448E-06
 -3
    1PSTEP                         3           3           1          
  100CL  103 1.50000E-02          81                     1    3           1
 -4  DISP        4    1
 -5  D1          1    2    1    0
 -5  D2          1    2    2    0
 -5  D3          1    2    3    0
 -5  ALL         1    2    0    0    1ALL
 -1         5 0.00000E+00 0.00000E+00 0.00000E+00
 -1         6 0.00000E+00 0.00000E+00 0.00000E+00
 -1         7 0.00000E+00 0.00000E+00 0.00000E+00
 -1         8 0.00000E+00 0.00000E+00 0.00000E+00
 -1        21 0.00000E+00 0.00000E+00 0.00000E+00
 -1        22 0.00000E+00 0.00000E+00 0.00000E+00
 -1        23 0.00000E+00 0.00000E+00 0.00000E+00
 -1        24 0.00000E+00 0.00000E+00 0.00000E+00
 -1        25 0.00000E+00 0.00000E+00 0.00000E+00
 -1        26 0.00000E+00 0.00000E+00 0.00000E+00
 -1        27 0.00000E+00 0.00000E+00 0.00000E+00
 -1        28 0.00000E+00 0.00000E+00 0.00000E+00
 -1        29 0.00000E+00 0.00000E+00 0.00000E+00
 -1        30 0.00000E+00 0.00000E+00 0.00000E+00
 -1        31 0.00000E+00 0.00000E+00 0.00000E+00
 -1        32 0.00000E+00 0.00000E+00 0.00000E+00
 -1        44 2.79432E-04-1.54954E-03-1.50826E-04
 -1        45-6.49279E-05-1.10544E-03 3.51521E-04
 -1        46-3.67188E-05-8.66525E-04 3.78496E-04
 -1        47 2.71100E-05-3.08036E-04 2.42160E-04
 -1        48-2.73541E-05-3.07120E-04 2.42280E-04
 -1        49 3.65818E-05-8.65332E-04 3.77521E-04
 -1        50 6.45679E-05-1.10616E-03 3.53026E-04
 -1        51-2.82552E-04-1.54979E-03-1.50961E-04
 -1        74-6.07260E-04-1.19465E-03 1.47751E-04
 -1        75-1.27032E-04-9.12786E-04-3.53755E-04
 -1        76 1.30035E-04-9.72884E-04-3.87310E-04
 -1        77 2.35243E-05-3.55151E-04-2.47526E-04
 -1        89 6.05320E-04-1.19171E-03 1.48290E-04
 -1        90 1.26628E-04-9.13377E-04-3.50578E-04
 -1        91-1.28956E-04-9.70698E-04-3.87512E-04
 -1        92-2.35571E-05-3.56345E-04-2.47873E-04
 -1        98 0.00000E+00 0.00000E+00 0.00000E+00
 -1        99 0.00000E+00 0.00000E+00 0.00000E+00
 -1       100 0.00000E+00 0.00000E+00 0.00000E+00
 -1       101 0.00000E+00 0.00000E+00 0.00000E+00
 -1       102 0.00000E+00 0.00000E+00 0.00000E+00
 -1       124-9.03542E-06-8.14606E-04-2.05090E-04
 -1       125-3.98449E-06-1.66885E-03-1.19938E-04
 -1       126 4.75154E-06-8.15459E-04-2.05115E-04
 -1       127 1.94908E-06-1.23992E-03 2.55172E-04
 -1       128-5.66624E-06-9.86857E-04 4.73414E-04
 -1       129-2.10083E-06-7.16965E-04 4.84014E-04
 -1       130 3.21136E-06-9.87158E-04 4.73903E-04
 -1       131-1.33812E-07-2.49204E-04 1.98296E-04
 -1       153-3.40351E-04-2.66269E-03-9.88278E-05
 -1       154-5.24885E-05-2.03686E-03-4.90883E-06
 -1       155 4.53144E-04-2.43858E-03 8.58931E-05
 -1       156 1.34944E-05-1.24671E-03 1.73396E-05
 -1       157 9.22002E-05-6.17050E-04 1.32292E-04
 -1       158 3.81407E-06-8.00389E-04 1.10427E-05
 -1       159-1.13447E-04-6.79084E-04-1.32134E-04
 -1       160-2.59451E-06-2.37074E-04 3.76713E-06
 -1       182-2.20975E-04-9.54317E-04 1.87370E-04
 -1       183-6.33360E-06-1.52972E-03 1.12789E-04
 -1       184 2.16638E-04-9.55869E-04 1.87169E-04
 -1       185 2.43414E-06-1.25868E-03-2.93270E-04
 -1       186 5.00765E-05-9.69724E-04-4.76477E-04
 -1       187-1.71902E-06-7.49030E-04-5.06905E-04
 -1       188-5.18981E-05-9.67773E-04-4.76542E-04
 -1       189 1.98015E-07-2.45501E-04-2.04653E-04
 -1       211-4.55402E-04-2.43031E-03 8.60579E-05
 -1       212 5.72770E-05-2.04135E-03-4.25785E-06
 -1       213 3.41329E-04-2.66680E-03-9.88312E-05
 -1       214-1.23093E-05-1.24691E-03 1.50999E-05
 -1       215 1.14667E-04-6.80115E-04-1.32514E-04
 -1       216-4.43779E-06-7.99964E-04 1.08895E-05
 -1       217-9.25736E-05-6.15727E-04 1.32086E-04
 -1       218 3.05566E-06-2.36378E-04 3.23724E-06
 -1       250-5.22965E-07-1.49624E-03-9.81253E-05
 -1       251-5.18188E-05-3.43123E-04 5.28509E-07
 -1       252 6.82695E-06-7.11131E-04-6.23011E-06
 -1       253 5.99873E-05-3.43038E-04 4.35931E-07
 -1       254-2.16117E-07-1.59118E-03 8.94754E-05
 -1       255-1.20451E-06-1.48402E-03-6.98461E-06
 -1       256 2.53386E-07-4.94963E-04 2.13276E-04
 -1       257 1.65581E-05-8.70502E-04-5.67892E-07
 -1       258 1.68881E-06-4.40887E-04 1.88344E-06
 -1       259-1.49364E-05-8.70248E-04-2.96111E-07
 -1       260 1.55372E-07-4.77464E-04-2.11858E-04
 -1       261-9.41063E-08-2.77293E-04 2.76305E-06
 -3
    1PSTEP                         4           4           1          
  100CL  104 2.00000E-02          81                     1    4           1
 -4  DISP        4    1
 -5  D1          1    2    1    0
 -5  D2          1    2    2    0
 -5  D3          1    2    3    0
 -5  ALL         1    2    0    0    1ALL
 -1         5 0.00000E+00 0.00000E+00 0.00000E+00
 -1         6 0.00000E+00 0.00000E+00 0.00000E+00
 -1         7 0.00000E+00 0.00000E+00 0.00000E+00
 -1         8 0.00000E+00 0.00000E+00 0.00000E+00
 -1        21 0.00000E+00 0.00000E+00 0.00000E+00
 -1        22 0.00000E+00 0.00000E+00 0.00000E+00
 -1        23 0.00000E+00 0.00000E+00 0.00000E+00
 -1        24 0.00000E+00 0.00000E+00 0.00000E+00
 -1        25 0.00000E+00 0.00000E+00 0.00000E+00
 -1        26 0.00000E+00 0.00000E+00 0.00000E+00
 -1        27 0.00000E+00 0.00000E+00 0.00000E+00
 -1        28 0.00000E+00 0.00000E+00 0.00000E+00
 -1        29 0.00000E+00 0.00000E+00 0.00000E+00
 -1        30 0.00000E+00 0.00000E+00 0.00000E+00
 -1        31 0.00000E+00 0.00000E+00 0.00000E+00
 -1        32 0.00000E+00 0.00000E+00 0.00000E+00
 -1        44-3.94446E-04 1.21517E-03 3.25878E-04
 -1        45 5.47297E-05 8.47266E-04-2.93655E-04
 -1        46 5.19048E-05 7.73071E-04-3.12195E-04
 -1        47 1.15267E-06 2.56543E-04-1.94137E-04
 -1        48-2.04397E-07 2.55485E-04-1.94476E-04
 -1        49-4.96961E-05 7.71818E-04-3.12429E-04
 -1        50-5.62718E-05 8.49213E-04-2.95271E-04
 -1        51 3.91492E-04 1.22106E-03 3.25544E-04
 -1        74 6.47912E-04 9.42622E-04-3.22357E-04
 -1        75 9.44648E-05 6.98730E-04 2.95398E-04
 -1        76-1.28441E-04 8.60144E-04 3.19742E-04
 -1        77-4.05626E-05 2.93423E-04 1.98767E-04
 -1        89-6.45495E-04 9.40942E-04-3.23273E-04
 -1        90-9.36173E-05 6.98162E-04 2.94264E-04
 -1        91 1.28479E-04 8.59715E-04 3.19974E-04
 -1        92 4.07069E-05 2.94360E-04 1.98692E-04
 -1        98 0.00000E+00 0.00000E+00 0.00000E+00
 -1        99 0.00000E+00 0.00000E+00 0.00000E+00
 -1       100 0.00000E+00 0.00000E+00 0.00000E+00
 -1       101 0.00000E+00 0.00000E+00 0.00000E+00
 -1       102 0.00000E+00 0.00000E+00 0.00000E+00
 -1       124 8.44756E-05 4.37327E-04 3.91697E-04
 -1       125 3.90035E-06 1.36731E-03 2.82328E-04
 -1       126-7.95445E-05 4.39725E-04 3.91998E-04
 -1       127-4.67098E-07 1.05642E-03-1.62141E-04
 -1       128-8.43405E-06 8.81663E-04-4.26266E-04
 -1       129 1.28904E-06 5.70195E-04-4.40867E-04
 -1       130 1.01841E-05 8.81029E-04-4.26274E-04
 -1       131 3.29061E-08 1.61736E-04-1.39614E-04
 -1       153 4.32789E-04 2.62441E-03 1.86269E-04
 -1       154 4.32733E-05 1.97817E-03 4.18335E-06
 -1       155-5.19954E-04 2.48606E-03-1.75134E-04
 -1       156-9.54521E-06 1.05056E-03-1.26184E-05
 -1       157-1.19474E-04 4.71566E-04-9.13754E-05
 -1       158-1.46387E-06 6.80923E-04-8.16897E-06
 -1       159 1.36875E-04 5.14009E-04 9.20081E-05
 -1       160 1.81754E-06 1.69186E-04-2.88214E-06
 -1       182 2.11174E-04 5.46200E-04-3.77350E-04
 -1       183 3.23417E-06 1.25969E-03-2.75940E-04
 -1       184-2.07914E-04 5.47745E-04-3.77470E-04
 -1       185-1.01757E-06 1.07234E-03 1.92462E-04
 -1       186-4.55294E-05 8.67446E-04 4.28813E-04
 -1       187 1.22411E-06 5.91136E-04 4.59121E-04
 -1       188 4.70173E-05 8.66572E-04 4.28930E-04
 -1       189-3.53814E-08 1.59040E-04 1.44976E-04
 -1       211 5.21053E-04 2.48366E-03-1.75702E-04
 -1       212-4.41330E-05 1.97827E-03 3.44848E-06
 -1       213-4.29942E-04 2.62767E-03 1.85765E-04
 -1       214 1.03119E-05 1.05003E-03-1.22794E-05
 -1       215-1.36829E-04 5.14225E-04 9.20255E-05
 -1       216 1.85632E-06 6.80951E-04-8.47913E-06
 -1       217 1.19682E-04 4.70825E-04-9.17267E-05
 -1       218-2.10678E-06 1.69117E-04-2.62985E-06
 -1       250 1.85179E-07 1.21252E-03 1.84767E-04
 -1       251 2.27058E-05-1.50890E-04-1.21862E-08
 -1       252-3.10340E-06 2.89404E-04 5.01228E-06
 -1       253-2.67255E-05-1.51688E-04 2.65497E-07
 -1       254 1.11264E-06 1.24975E-03-1.77386E-04
 -1       255 1.01030E-06 1.37251E-03 5.67481E-06
 -1       256 3.35423E-07 2.86980E-04-1.90342E-04
 -1       257-9.14588E-06 7.53777E-04 4.60420E-07
 -1       258-7.25985E-07 2.06532E-04-1.24686E-06
 -1       259 8.72646E-06 7.53952E-04 4.84886E-07
 -1       260-5.35986E-08 2.79635E-04 1.89623E-04
 -1       261 1.20082E-07 2.05658E-04-2.02238E-06
 -3
    1PSTEP                         5           5           1          
  100CL  105 2.50000E-02          81                     1    5           1
 -4  DISP        4    1
 -5  D1          1    2    1    0
 -5  D2          1    2    2    0
 -5  D3          1    2    3    0
 -5  ALL         1    2    0    0    1ALL
 -1         5 0.00000E+00 0.00000E+00 0.00000E+00
 -1         6 0.00000E+00 0.00000E+00 0.00000E+00
 -1         7 0.00000E+00 0.00000E+00 0.00000E+00
 -1         8 0.00000E+00 0.00000E+00 0.00000E+00
 -1        21 0.00000E+00 0.00000E+00 0.00000E+00
 -1        22 0.00000E+00 0.00000E+00 0.00000E+00
 -1        23 0.00000E+00 0.00000E+00 0.00000E+00
 -1        24 0.00000E+00 0.00000E+00 0.00000E+00
 -1        25 0.00000E+00 0.00000E+00 0.00000E+00
 -1        26 0.00000E+00 0.00000E+00 0.00000E+00
 -1        27 0.00000E+00 0.00000E+00 0.00000E+00
 -1        28 0.00000E+00 0.00000E+00 0.00000E+00
 -1        29 0.00000E+00 0.00000E+00 0.00000E+00
 -1        30 0.00000E+00 0.00000E+00 0.00000E+00
 -1        31 0.00000E+00 0.00000E+00 0.00000E+00
 -1        32 0.00000E+00 0.00000E+00 0.00000E+00
 -1        44 4.04672E-04-9.27311E-04-4.19472E-04
 -1        45-6.61260E-05-6.15855E-04 2.28594E-04
 -1        46-4.70964E-05-6.31349E-04 2.37626E-04
 -1        47-1.37389E-05-1.92662E-04 1.44191E-04
 -1        48 1.37282E-05-1.92371E-04 1.44306E-04
 -1        49 4.71001E-05-6.31243E-04 2.37396E-04
 -1        50 6.52844E-05-6.15619E-04 2.29787E-04
 -1        51-4.07952E-04-9.26150E-04-4.19285E-04
 -1        74-5.96986E-04-7.24394E-04 4.16359E-04
 -1        75-4.61030E-05-5.05115E-04-2.30541E-04
 -1        76 1.06158E-04-6.97526E-04-2.43507E-04
 -1        77 4.35728E-05-2.20169E-04-1.47775E-04
 -1        89 5.96474E-04-7.22033E-04 4.16820E-04
 -1        90 4.58622E-05-5.04876E-04-2.28944E-04
 -1        91-1.05912E-04-6.96761E-04-2.43575E-04
 -1        92-4.37050E-05-2.20973E-04-1.47903E-04
 -1        98 0.00000E+00 0.00000E+00 0.00000E+00
 -1        99 0.00000E+00 0.00000E+00 0.00000E+00
 -1       100 0.00000E+00 0.00000E+00 0.00000E+00
 -1       101 0.00000E+00 0.00000E+00 0.00000E+00
 -1       102 0.00000E+00 0.00000E+00 0.00000E+00
 -1       124-1.04679E-04-1.27215E-04-4.89057E-04
 -1       125-2.03700E-06-1.06397E-03-3.70499E-04
 -1       126 1.01827E-04-1.27083E-04-4.89231E-04
 -1       127 9.94013E-07-8.48050E-04 8.13532E-05
 -1       128 1.10576E-05-7.32308E-04 3.56531E-04
 -1       129-1.19340E-06-4.08240E-04 3.71510E-04
 -1       130-1.24296E-05-7.32487E-04 3.56671E-04
 -1       131-1.14829E-07-8.52564E-05 8.59864E-05
 -1       153-4.55940E-04-2.42163E-03-2.31476E-04
 -1       154-3.28471E-05-1.80165E-03-3.41498E-06
 -1       155 5.22851E-04-2.32741E-03 2.22387E-04
 -1       156 6.86188E-06-8.33354E-04 9.47444E-06
 -1       157 1.29800E-04-3.20322E-04 5.37909E-05
 -1       158 1.10323E-06-5.34047E-04 5.90072E-06
 -1       159-1.42978E-04-3.50511E-04-5.45280E-05
 -1       160-1.16011E-06-1.04153E-04 2.09296E-06
 -1       182-1.93007E-04-2.06307E-04 4.77448E-04
 -1       183-3.16226E-06-9.86499E-04 3.65007E-04
 -1       184 1.90920E-04-2.07133E-04 4.77484E-04
 -1       185 1.14297E-06-8.61437E-04-1.04570E-04
 -1       186 3.76161E-05-7.22516E-04-3.58957E-04
 -1       187-9.60947E-07-4.22387E-04-3.85592E-04
 -1       188-3.87364E-05-7.21582E-04-3.58997E-04
 -1       189 7.73076E-08-8.29800E-05-9.01971E-05
 -1       211-5.24376E-04-2.32361E-03 2.22591E-04
 -1       212 3.49269E-05-1.80395E-03-2.81763E-06
 -1       213 4.56030E-04-2.42415E-03-2.31238E-04
 -1       214-6.45968E-06-8.33446E-04 8.49452E-06
 -1       215 1.43452E-04-3.50993E-04-5.46321E-05
 -1       216-1.61895E-06-5.33829E-04 5.89773E-06
 -1       217-1.30197E-04-3.19634E-04 5.38281E-05
 -1       218 1.35558E-06-1.03826E-04 1.85695E-06
 -1       250-6.99675E-07-9.12677E-04-2.28806E-04
 -1       251-1.26287E-05 4.88027E-04-5.40191E-07
 -1       252 3.41525E-06-9.39137E-06-4.11038E-06
 -1       253 1.64438E-05 4.87676E-04-7.28260E-07
 -1       254-2.46557E-07-9.34575E-04 2.22754E-04
 -1       255-6.97003E-07-1.18659E-03-4.63693E-06
 -1       256 1.10455E-07-1.15061E-04 1.58655E-04
 -1       257 6.21341E-06-6.12167E-04-5.80744E-07
 -1       258 7.65506E-07-1.78226E-05 7.31311E-07
 -1       259-5.55295E-06-6.11943E-04-4.58831E-07
 -1       260 2.71247E-08-1.10484E-04-1.58570E-04
 -1       261-8.39242E-08-1.34813E-04 1.39177E-06
 -3
    1PSTEP                         6           6           1          
  100CL  106 3.00000E-02          81                     1    6           1
 -4  DISP        4    1
 -5  D1          1    2    1    0
 -5  D2          1    2    2    0
 -5  D3          1    2    3    0
 -5  ALL         1    2    0    0    1ALL
 -1         5 0.00000E+00 0.00000E+00 0.00000E+00
 -1         6 0.00000E+00 0.00000E+00 0.00000E+00
 -1         7 0.00000E+00 0.00000E+00 0.00000E+00
 -1         8 0.00000E+00 0.00000E+00 0.00000E+00
 -1        21 0.00000E+00 0.00000E+00 0.00000E+00
 -1        22 0.00000E+00 0.00000E+00 0.00000E+00
 -1        23 0.00000E+00 0.00000E+00 0.00000E+00
 -1        24 0.00000E+00 0.00000E+00 0.00000E+00
 -1        25 0.00000E+00 0.00000E+00 0.00000E+00
 -1        26 0.00000E+00 0.00000E+00 0.00000E+00
 -1        27 0.00000E+00 0.00000E+00 0.00000E+00
 -1        28 0.00000E+00 0.00000E+00 0.00000E+00
 -1        29 0.00000E+00 0.00000E+00 0.00000E+00
 -1        30 0.00000E+00 0.00000E+00 0.00000E+00
 -1        31 0.00000E+00 0.00000E+00 0.00000E+00
 -1        32 0.00000E+00 0.00000E+00 0.00000E+00
 -1        44-2.90519E-04 6.96486E-04 4.18899E-04
 -1        45 1.02912E-04 4.15430E-04-1.53173E-04
 -1        46 1.59127E-05 4.21975E-04-1.51795E-04
 -1        47 8.10948E-06 1.10119E-04-9.00847E-05