    1C
    1UUSER                                                              
    1UDATE              17.july.2018                                    
    1UTIME              21:42:12                                        
    1UHOST                                                              
    1UPGM               CalculiX                                        
    1UVERSION           Version 2.13                             
    1UCOMPILETIME       jue jun 14 00:40:39 CEST 2018                    
    1UDIR                                                               
    1UDBN                                                               
    1UMAT    1EL                                                        
    2C                            81                                     1
 -1         5 0.00000E+00 0.00000E+00 8.00000E+00
 -1         6 1.00000E+00 0.00000E+00 8.00000E+00
 -1         7 1.00000E+00 1.00000E+00 8.00000E+00
 -1         8 0.00000E+00 1.00000E+00 8.00000E+00
 -1        21 2.50000E-01 0.00000E+00 8.00000E+00
 -1        22 5.00000E-01 0.00000E+00 8.00000E+00
 -1        23 7.50000E-01 0.00000E+00 8.00000E+00
 -1        24 1.00000E+00 2.50000E-01 8.00000E+00
 -1        25 1.00000E+00 5.00000E-01 8.00000E+00
 -1        26 1.00000E+00 7.50000E-01 8.00000E+00
 -1        27 7.50000E-01 1.00000E+00 8.00000E+00
 -1        28 5.00000E-01 1.00000E+00 8.00000E+00
 -1        29 2.50000E-01 1.00000E+00 8.00000E+00
 -1        30 0.00000E+00 7.50000E-01 8.00000E+00
 -1        31 0.00000E+00 5.00000E-01 8.00000E+00
 -1        32 0.00000E+00 2.50000E-01 8.00000E+00
 -1        44 1.00000E+00 0.00000E+00 6.00000E+00
 -1        45 1.00000E+00 0.00000E+00 6.50000E+00
 -1        46 1.00000E+00 0.00000E+00 7.00000E+00
 -1        47 1.00000E+00 0.00000E+00 7.50000E+00
 -1        48 0.00000E+00 0.00000E+00 7.50000E+00
 -1        49 0.00000E+00 0.00000E+00 7.00000E+00
 -1        50 0.00000E+00 0.00000E+00 6.50000E+00
 -1        51 0.00000E+00 0.00000E+00 6.00000E+00
 -1        74 1.00000E+00 1.00000E+00 6.00000E+00
 -1        75 1.00000E+00 1.00000E+00 6.50000E+00
 -1        76 1.00000E+00 1.00000E+00 7.00000E+00
 -1        77 1.00000E+00 1.00000E+00 7.50000E+00
 -1        89 0.00000E+00 1.00000E+00 6.00000E+00
 -1        90 0.00000E+00 1.00000E+00 6.50000E+00
 -1        91 0.00000E+00 1.00000E+00 7.00000E+00
 -1        92 0.00000E+00 1.00000E+00 7.50000E+00
 -1        98 5.00000E-01 2.50000E-01 8.00000E+00
 -1        99 2.50000E-01 5.00000E-01 8.00000E+00
 -1       100 5.00000E-01 5.00000E-01 8.00000E+00
 -1       101 7.50000E-01 5.00000E-01 8.00000E+00
 -1       102 5.00000E-01 7.50000E-01 8.00000E+00
 -1       124 2.50000E-01 0.00000E+00 6.00000E+00
 -1       125 5.00000E-01 0.00000E+00 6.00000E+00
 -1       126 7.50000E-01 0.00000E+00 6.00000E+00
 -1       127 5.00000E-01 0.00000E+00 6.50000E+00
 -1       128 2.50000E-01 0.00000E+00 7.00000E+00
 -1       129 5.00000E-01 0.00000E+00 7.00000E+00
 -1       130 7.50000E-01 0.00000E+00 7.00000E+00
 -1       131 5.00000E-01 0.00000E+00 7.50000E+00
 -1       153 1.00000E+00 2.50000E-01 6.00000E+00
 -1       154 1.00000E+00 5.00000E-01 6.00000E+00
 -1       155 1.00000E+00 7.50000E-01 6.00000E+00
 -1       156 1.00000E+00 5.00000E-01 6.50000E+00
 -1       157 1.00000E+00 2.50000E-01 7.00000E+00
 -1       158 1.00000E+00 5.00000E-01 7.00000E+00
 -1       159 1.00000E+00 7.50000E-01 7.00000E+00
 -1       160 1.00000E+00 5.00000E-01 7.50000E+00
 -1       182 7.50000E-01 1.00000E+00 6.00000E+00
 -1       183 5.00000E-01 1.00000E+00 6.00000E+00
 -1       184 2.50000E-01 1.00000E+00 6.00000E+00
 -1       185 5.00000E-01 1.00000E+00 6.50000E+00
 -1       186 7.50000E-01 1.00000E+00 7.00000E+00
 -1       187 5.00000E-01 1.00000E+00 7.00000E+00
 -1       188 2.50000E-01 1.00000E+00 7.00000E+00
 -1       189 5.00000E-01 1.00000E+00 7.50000E+00
 -1       211 0.00000E+00 7.50000E-01 6.00000E+00
 -1       212 0.00000E+00 5.00000E-01 6.00000E+00
 -1       213 0.00000E+00 2.50000E-01 6.00000E+00
 -1       214 0.00000E+00 5.00000E-01 6.50000E+00
 -1       215 0.00000E+00 7.50000E-01 7.00000E+00
 -1       216 0.00000E+00 5.00000E-01 7.00000E+00
 -1       217 0.00000E+00 2.50000E-01 7.00000E+00
 -1       218 0.00000E+00 5.00000E-01 7.50000E+00
 -1       250 5.00000E-01 2.50000E-01 6.00000E+00
 -1       251 2.50000E-01 5.00000E-01 6.00000E+00
 -1       252 5.00000E-01 5.00000E-01 6.00000E+00
 -1       253 7.50000E-01 5.00000E-01 6.00000E+00
 -1       254 5.00000E-01 7.50000E-01 6.00000E+00
 -1       255 5.00000E-01 5.00000E-01 6.50000E+00
 -1       256 5.00000E-01 2.50000E-01 7.00000E+00
 -1       257 2.50000E-01 5.00000E-01 7.00000E+00
 -1       258 5.00000E-01 5.00000E-01 7.00000E+00
 -1       259 7.50000E-01 5.00000E-01 7.00000E+00
 -1       260 5.00000E-01 7.50000E-01 7.00000E+00
 -1       261 5.00000E-01 5.00000E-01 7.50000E+00
 -3
    3C                             8                                     1
 -1        25    4    0    1
 -2        51       125       252       212        49       129       258       216       124       250
 -2       251       213        50       127       255       214       128       256       257       217
 -1        26    4    0    1
 -2       125        44       154       252       129        46       158       258       126       153
 -2       253       250       127        45       156       255       130       157       259       256
 -1        27    4    0    1
 -2       212       252       183        89       216       258       187        91       251       254
 -2       184       211       214       255       185        90       257       260       188       215
 -1        28    4    0    1
 -2       252       154        74       183       258       158        76       187       253       155
 -2       182       254       255       156        75       185       259       159       186       260
 -1        29    4    0    1
 -2        49       129       258       216         5        22       100        31       128       256
 -2       257       217        48       131       261       218        21        98        99        32
 -1        30    4    0    1
 -2       129        46       158       258        22         6        25       100       130       157
 -2       259       256       131        47       160       261        23        24       101        98
 -1        31    4    0    1
 -2       216       258       187        91        31       100        28         8       257       260
 -2       188       215       218       261       189        92        99       102        29        30
 -1        32    4    0    1
 -2       258       158        76       187       100        25         7        28       259       159
 -2       186       260       261       160        77       189       101        26        27       102
 -3
    1PSTEP                         1           1           1          
  100CL  101 5.00000E-03          81                     1    1           1
 -4  DISP        4    1
 -5  D1          1    2    1    0
 -5  D2          1    2    2    0
 -5  D3          1    2    3    0
 -5  ALL         1    2    0    0    1ALL
 -1         5 0.00000E+00 0.00000E+00 0.00000E+00
 -1         6 0.00000E+00 0.00000E+00 0.00000E+00
 -1         7 0.00000E+00 0.00000E+00 0.00000E+00
 -1         8 0.00000E+00 0.00000E+00 0.00000E+00
 -1        21 0.00000E+00 0.00000E+00 0.00000E+00
 -1        22 0.00000E+00 0.00000E+00 0.00000E+00
 -1        23 0.00000E+00 0.00000E+00 0.00000E+00
 -1        24 0.00000E+00 0.00000E+00 0.00000E+00
 -1        25 0.00000E+00 0.00000E+00 0.00000E+00
 -1        26 0.00000E+00 0.00000E+00 0.00000E+00
 -1        27 0.00000E+00 0.00000E+00 0.00000E+00
 -1        28 0.00000E+00 0.00000E+00 0.00000E+00
 -1        29 0.00000E+00 0.00000E+00 0.00000E+00
 -1        30 0.00000E+00 0.00000E+00 0.00000E+00
 -1        31 0.00000E+00 0.00000E+00 0.00000E+00
 -1        32 0.00000E+00 0.00000E+00 0.00000E+00
 -1        44-5.98031E-05-3.46587E-03 4.48654E-04
 -1        45 5.67932E-05-2.56234E-03 7.85814E-04
 -1        46-4.77070E-05-1.79571E-03 9.49246E-04
 -1        47 1.30973E-04-6.75029E-04 5.43174E-04
 -1        48-1.30978E-04-6.75032E-04 5.43182E-04
 -1        49 4.76824E-05-1.79572E-03 9.49265E-04
 -1        50-5.68335E-05-2.56234E-03 7.85849E-04
 -1        51 5.96946E-05-3.46588E-03 4.48714E-04
 -1        74 3.18595E-04-4.41263E-03-4.94685E-04
 -1        75 1.91129E-04-2.97239E-03-7.84998E-04
 -1        76-1.10441E-04-1.59759E-03-9.49936E-04
 -1        77-2.07870E-04-5.26710E-04-5.58192E-04
 -1        89-3.18705E-04-4.41263E-03-4.94626E-04
 -1        90-1.91168E-04-2.97239E-03-7.84964E-04
 -1        91 1.10416E-04-1.59758E-03-9.49917E-04
 -1        92 2.07866E-04-5.26707E-04-5.58184E-04
 -1        98 0.00000E+00 0.00000E+00 0.00000E+00
 -1        99 0.00000E+00 0.00000E+00 0.00000E+00
 -1       100 0.00000E+00 0.00000E+00 0.00000E+00
 -1       101 0.00000E+00 0.00000E+00 0.00000E+00
 -1       102 0.00000E+00 0.00000E+00 0.00000E+00
 -1       124 1.48671E-04-2.96658E-03 4.29748E-04
 -1       125-3.72240E-08-3.58912E-03 4.48902E-04
 -1       126-1.48760E-04-2.96658E-03 4.29732E-04
 -1       127-2.58349E-08-2.56262E-03 9.03546E-04
 -1       128-8.99270E-06-1.95279E-03 9.48212E-04
 -1       129-6.44761E-09-1.81458E-03 9.41556E-04
 -1       130 8.97417E-06-1.95279E-03 9.48199E-04
 -1       131-1.76378E-09-7.36467E-04 5.56400E-04
 -1       153 6.98937E-05-3.63636E-03 1.91211E-04
 -1       154-1.20330E-04-2.50393E-03-2.08104E-05
 -1       155-6.51427E-05-3.88927E-03-2.38024E-04
 -1       156-1.20312E-04-2.78926E-03-6.45679E-05
 -1       157-2.05117E-05-1.50917E-03 3.92369E-04
 -1       158 8.84452E-05-1.56722E-03-2.94577E-05
 -1       159 4.66851E-05-1.47578E-03-4.11106E-04
 -1       160 3.98281E-05-6.56534E-04 4.88210E-06
 -1       182 1.14079E-04-2.56288E-03-4.71239E-04
 -1       183-3.69599E-08-4.35480E-03-4.76542E-04
 -1       184-1.14168E-04-2.56288E-03-4.71224E-04
 -1       185-2.60816E-08-2.83328E-03-8.73722E-04
 -1       186-4.39908E-05-2.16230E-03-9.82706E-04
 -1       187-6.10151E-09-1.83182E-03-9.63788E-04
 -1       188 4.39726E-05-2.16230E-03-9.82693E-04
 -1       189-1.71282E-09-7.19961E-04-5.64548E-04
 -1       211 6.50324E-05-3.88927E-03-2.37969E-04
 -1       212 1.20224E-04-2.50393E-03-2.07581E-05
 -1       213-7.00029E-05-3.63636E-03 1.91265E-04
 -1       214 1.20268E-04-2.78926E-03-6.45340E-05
 -1       215-4.67100E-05-1.47577E-03-4.11086E-04
 -1       216-8.84697E-05-1.56722E-03-2.94377E-05
 -1       217 2.04869E-05-1.50918E-03 3.92389E-04
 -1       218-3.98342E-05-6.56534E-04 4.89010E-06
 -1       250-3.84741E-08-4.08175E-03 1.74742E-04
 -1       251 3.02992E-05-2.57245E-03-1.03331E-05
 -1       252-3.97702E-08-3.12334E-03-1.55553E-05
 -1       253-3.03904E-05-2.57245E-03-1.03479E-05
 -1       254-3.82803E-08-4.41266E-03-2.54190E-04
 -1       255-2.60246E-08-2.59959E-03-3.20092E-05
 -1       256-7.38528E-09-1.60733E-03 3.95663E-04
 -1       257-4.11540E-05-1.74939E-03-1.20016E-05
 -1       258-7.80816E-09-1.79020E-03-1.45618E-05
 -1       259 4.11342E-05-1.74939E-03-1.20140E-05
 -1       260-7.22881E-09-1.62248E-03-4.18283E-04
 -1       261-2.41100E-09-7.17039E-04-1.98106E-06
 -3
    1PSTEP                         2           2           1          
  100CL  102 1.00000E-02          81                     1    2           1
 -4  DISP        4    1
 -5  D1          1    2    1    0
 -5  D2          1    2    2    0
 -5  D3          1    2    3    0
 -5  ALL         1    2    0    0    1ALL
 -1         5 0.00000E+00 0.00000E+00 0.00000E+00
 -1         6 0.00000E+00 0.00000E+00 0.00000E+00
 -1         7 0.00000E+00 0.00000E+00 0.00000E+00
 -1         8 0.00000E+00 0.00000E+00 0.00000E+00
 -1        21 0.00000E+00 0.00000E+00 0.00000E+00
 -1        22 0.00000E+00 0.00000E+00 0.00000E+00
 -1        23 0.00000E+00 0.00000E+00 0.00000E+00
 -1        24 0.00000E+00 0.00000E+00 0.00000E+00
 -1        25 0.00000E+00 0.00000E+00 0.00000E+00
 -1        26 0.00000E+00 0.00000E+00 0.00000E+00
 -1        27 0.00000E+00 0.00000E+00 0.00000E+00
 -1        28 0.00000E+00 0.00000E+00 0.00000E+00
 -1        29 0.00000E+00 0.00000E+00 0.00000E+00
 -1        30 0.00000E+00 0.00000E+00 0.00000E+00
 -1        31 0.00000E+00 0.00000E+00 0.00000E+00
 -1        32 0.00000E+00 0.00000E+00 0.00000E+00
 -1        44-1.57731E-04 1.59948E-03-2.33966E-04
 -1        45-3.92818E-05 1.24295E-03-3.77544E-04
 -1        46 4.37526E-05 9.17778E-04-4.32400E-04
 -1        47-5.26959E-05 3.71552E-04-2.84058E-04
 -1        48 5.26933E-05 3.71531E-04-2.84030E-04
 -1        49-4.37728E-05 9.17770E-04-4.32351E-04
 -1        50 3.92139E-05 1.24289E-03-3.77490E-04
 -1        51 1.57587E-04 1.59951E-03-2.33931E-04
 -1        74 1.41279E-04 1.61788E-03 2.34158E-04
 -1        75 2.96106E-05 1.25307E-03 3.77469E-04
 -1        76-3.89721E-05 9.12895E-04 4.32404E-04
 -1        77 5.54540E-05 3.68542E-04 2.84121E-04
 -1        89-1.41464E-04 1.61778E-03 2.34151E-04
 -1        90-2.97682E-05 1.25304E-03 3.77502E-04
 -1        91 3.89188E-05 9.12879E-04 4.32457E-04
 -1        92-5.54814E-05 3.68536E-04 2.84147E-04
 -1        98 0.00000E+00 0.00000E+00 0.00000E+00
 -1        99 0.00000E+00 0.00000E+00 0.00000E+00
 -1       100 0.00000E+00 0.00000E+00 0.00000E+00
 -1       101 0.00000E+00 0.00000E+00 0.00000E+00
 -1       102 0.00000E+00 0.00000E+00 0.00000E+00
 -1       124 6.81990E-06 1.48297E-03-2.20393E-04
 -1       125-6.56063E-08 1.76368E-03-2.31440E-04
 -1       126-6.94997E-06 1.48296E-03-2.20423E-04
 -1       127-3.10832E-08 1.30217E-03-4.17908E-04
 -1       128-4.27293E-06 9.58387E-04-4.63380E-04
 -1       129-9.05688E-09 8.89006E-04-4.72392E-04
 -1       130 4.25275E-06 9.58391E-04-4.63403E-04
 -1       131 1.34244E-09 3.75385E-04-2.75985E-04
 -1       153 1.26423E-04 1.91531E-03-1.03879E-04
 -1       154-2.61428E-06 1.69264E-03-3.78943E-08
 -1       155-1.21271E-04 1.92518E-03 1.04046E-04
 -1       156 6.15125E-07 1.40551E-03 1.14862E-06
 -1       157-2.51705E-05 7.94284E-04-1.85943E-04
 -1       158-3.56496E-08 8.10681E-04 4.49774E-07
 -1       159 2.38138E-05 7.91871E-04 1.85888E-04
 -1       160-2.04486E-07 3.08549E-04 7.64402E-09
 -1       182-2.38763E-06 1.47629E-03 2.20635E-04
 -1       183-1.22771E-07 1.77208E-03 2.31676E-04
 -1       184 2.17276E-06 1.47624E-03 2.20638E-04
 -1       185-6.61507E-08 1.30254E-03 4.16040E-04
 -1       186-1.79250E-06 9.60443E-04 4.63649E-04
 -1       187-3.96387E-08 8.88836E-04 4.71825E-04
 -1       188 1.72655E-06 9.60433E-04 4.63670E-04
 -1       189-1.01446E-08 3.75532E-04 2.75965E-04
 -1       211 1.21112E-04 1.92507E-03 1.04120E-04
 -1       212 2.45187E-06 1.69254E-03 1.60459E-08
 -1       213-1.26582E-04 1.91527E-03-1.03797E-04
 -1       214-7.21754E-07 1.40548E-03 1.20447E-06
 -1       215-2.38697E-05 7.91845E-04 1.85927E-04
 -1       216-1.40293E-08 8.10641E-04 4.96378E-07
 -1       217 2.51357E-05 7.94259E-04-1.85907E-04
 -1       218 1.87652E-07 3.08539E-04 3.42556E-08
 -1       250-7.44633E-08 1.90594E-03-1.03086E-04
 -1       251-2.08614E-06 1.20943E-03-7.57525E-08
 -1       252-8.20243E-08 1.54181E-03 4.01491E-08
 -1       253 1.92363E-06 1.20949E-03-1.11328E-07
 -1       254-1.03933E-07 1.90322E-03 1.03661E-04
 -1       255-4.77375E-08 1.37569E-03 1.50925E-07
 -1       256-1.84955E-08 7.83090E-04-2.07317E-04
 -1       257 7.05824E-07 9.13797E-04 5.18218E-08
 -1       258-2.67854E-08 8.11594E-04 8.37167E-08
 -1       259-7.56491E-07 9.13815E-04 3.05418E-08
 -1       260-3.36267E-08 7.84478E-04 2.07495E-04
 -1       261-6.19307E-09 3.48219E-04-1.70972E-09
 -3
    1PSTEP                         3           3           1          
  100CL  103 1.50000E-02          81                     1    3           1
 -4  DISP        4    1
 -5  D1          1    2    1    0
 -5  D2          1    2    2    0
 -5  D3          1    2    3    0
 -5  ALL         1    2    0    0    1ALL
 -1         5 0.00000E+00 0.00000E+00 0.00000E+00
 -1         6 0.00000E+00 0.00000E+00 0.00000E+00
 -1         7 0.00000E+00 0.00000E+00 0.00000E+00
 -1         8 0.00000E+00 0.00000E+00 0.00000E+00
 -1        21 0.00000E+00 0.00000E+00 0.00000E+00
 -1        22 0.00000E+00 0.00000E+00 0.00000E+00
 -1        23 0.00000E+00 0.00000E+00 0.00000E+00
 -1        24 0.00000E+00 0.00000E+00 0.00000E+00
 -1        25 0.00000E+00 0.00000E+00 0.00000E+00
 -1        26 0.00000E+00 0.00000E+00 0.00000E+00
 -1        27 0.00000E+00 0.00000E+00 0.00000E+00
 -1        28 0.00000E+00 0.00000E+00 0.00000E+00
 -1        29 0.00000E+00 0.00000E+00 0.00000E+00
 -1        30 0.00000E+00 0.00000E+00 0.00000E+00
 -1        31 0.00000E+00 0.00000E+00 0.00000E+00
 -1        32 0.00000E+00 0.00000E+00 0.00000E+00
 -1        44 1.22822E-04-1.27218E-03 1.85430E-04
 -1        45 2.87429E-05-9.88972E-04 2.98699E-04
 -1        46-3.35573E-05-7.24539E-04 3.42148E-04
 -1        47 4.24541E-05-2.93451E-04 2.25118E-04
 -1        48-4.24687E-05-2.93465E-04 2.25151E-04
 -1        49 3.35260E-05-7.24551E-04 3.42188E-04
 -1        50-2.89210E-05-9.88934E-04 2.98757E-04
 -1        51-1.23088E-04-1.27206E-03 1.85527E-04
 -1        74-1.21272E-04-1.27374E-03-1.85515E-04
 -1        75-2.78712E-05-9.89949E-04-2.98795E-04
 -1        76 3.28689E-05-7.23937E-04-3.42212E-04
 -1        77-4.27791E-05-2.93170E-04-2.25154E-04
 -1        89 1.21023E-04-1.27385E-03-1.85424E-04
 -1        90 2.77029E-05-9.89969E-04-2.98737E-04
 -1        91-3.28882E-05-7.23920E-04-3.42169E-04
 -1        92 4.27678E-05-2.93152E-04-2.25119E-04
 -1        98 0.00000E+00 0.00000E+00 0.00000E+00
 -1        99 0.00000E+00 0.00000E+00 0.00000E+00
 -1       100 0.00000E+00 0.00000E+00 0.00000E+00
 -1       101 0.00000E+00 0.00000E+00 0.00000E+00
 -1       102 0.00000E+00 0.00000E+00 0.00000E+00
 -1       124-4.65629E-06-1.17295E-03 1.74830E-04
 -1       125-1.73811E-07-1.40062E-03 1.83316E-04
 -1       126 4.37687E-06-1.17295E-03 1.74770E-04
 -1       127-5.59751E-08-1.03131E-03 3.30687E-04
 -1       128 2.82060E-06-7.59656E-04 3.67200E-04
 -1       129-4.54987E-08-7.04721E-04 3.74349E-04
 -1       130-2.88759E-06-7.59663E-04 3.67185E-04
 -1       131-2.06945E-09-2.97530E-04 2.18699E-04
 -1       153-1.00976E-04-1.51916E-03 8.23386E-05
 -1       154 3.13293E-07-1.34620E-03-2.89753E-08
 -1       155 1.00099E-04-1.51907E-03-8.24504E-05
 -1       156-6.65518E-08-1.11501E-03-1.50848E-07
 -1       157 2.02153E-05-6.28552E-04 1.47334E-04
 -1       158-3.55132E-08-6.41563E-04-7.19751E-08
 -1       159-2.01132E-05-6.28472E-04-1.47375E-04
 -1       160-1.53630E-08-2.43879E-04-1.92833E-08
 -1       182-4.64977E-06-1.17238E-03-1.74827E-04
 -1       183-1.73830E-07-1.40122E-03-1.83370E-04
 -1       184 4.37939E-06-1.17238E-03-1.74766E-04
 -1       185-4.80058E-08-1.03119E-03-3.30481E-04
 -1       186 2.72196E-06-7.59818E-04-3.67230E-04
 -1       187-4.26700E-08-7.04838E-04-3.74271E-04
 -1       188-2.78019E-06-7.59822E-04-3.67214E-04
 -1       189 2.95851E-10-2.97563E-04-2.18688E-04
 -1       211-1.00274E-04-1.51915E-03-8.23737E-05
 -1       212-4.94559E-07-1.34618E-03 2.22514E-08
 -1       213 1.00794E-04-1.51906E-03 8.24047E-05
 -1       214-4.07000E-08-1.11500E-03-7.09486E-08
 -1       215 2.00572E-05-6.28451E-04-1.47324E-04
 -1       216-3.90675E-08-6.41556E-04-1.26387E-08
 -1       217-2.02775E-05-6.28563E-04 1.47388E-04
 -1       218-3.94535E-09-2.43877E-04-1.83566E-10
 -1       250-1.06392E-07-1.51263E-03 8.17505E-05
 -1       251-3.79270E-07-9.57448E-04 2.52932E-08
 -1       252-1.97212E-08-1.22267E-03-2.53251E-08
 -1       253 2.51740E-07-9.57456E-04-3.79218E-09
 -1       254-1.06855E-07-1.51319E-03-8.18245E-05
 -1       255-6.04201E-08-1.09023E-03-6.49644E-09
 -1       256-3.01051E-08-6.20458E-04 1.64302E-04
 -1       257 1.84687E-09-7.24574E-04 1.21557E-08
 -1       258-1.82687E-08-6.43003E-04-8.95755E-10
 -1       259-5.10251E-08-7.24577E-04-1.69222E-08
 -1       260-2.86148E-08-6.20450E-04-1.64313E-04
 -1       261-1.32829E-08-2.75970E-04 2.32580E-09
 -3
    1PSTEP                         4           4           1          
  100CL  104 2.00000E-02          81                     1    4           1
 -4  DISP        4    1
 -5  D1          1    2    1    0
 -5  D2          1    2    2    0
 -5  D3          1    2    3    0
 -5  ALL         1    2    0    0    1ALL
 -1         5 0.00000E+00 0.00000E+00 0.00000E+00
 -1         6 0.00000E+00 0.00000E+00 0.00000E+00
 -1         7 0.00000E+00 0.00000E+00 0.00000E+00
 -1         8 0.00000E+00 0.00000E+00 0.00000E+00
 -1        21 0.00000E+00 0.00000E+00 0.00000E+00
 -1        22 0.00000E+00 0.00000E+00 0.00000E+00
 -1        23 0.00000E+00 0.00000E+00 0.00000E+00
 -1        24 0.00000E+00 0.00000E+00 0.00000E+00
 -1        25 0.00000E+00 0.00000E+00 0.00000E+00
 -1        26 0.00000E+00 0.00000E+00 0.00000E+00
 -1        27 0.00000E+00 0.00000E+00 0.00000E+00
 -1        28 0.00000E+00 0.00000E+00 0.00000E+00
 -1        29 0.00000E+00 0.00000E+00 0.00000E+00
 -1        30 0.00000E+00 0.00000E+00 0.00000E+00
 -1        31 0.00000E+00 0.00000E+00 0.00000E+00
 -1        32 0.00000E+00 0.00000E+00 0.00000E+00
 -1        44-9.89649E-05 9.85277E-04-1.44091E-04
 -1        45-2.37902E-05 7.66550E-04-2.32187E-04
 -1        46 2.66989E-05 5.63383E-04-2.65613E-04
 -1        47-3.25275E-05 2.28386E-04-1.74932E-04
 -1        48 3.25195E-05 2.28383E-04-1.74932E-04
 -1        49-2.67229E-05 5.63385E-04-2.65611E-04
 -1        50 2.37731E-05 7.66540E-04-2.32153E-04
 -1        51 9.90398E-05 9.85153E-04-1.44079E-04
 -1        74 9.38142E-05 9.89166E-04 1.44141E-04
 -1        75 2.10098E-05 7.68992E-04 2.32302E-04
 -1        76-2.54986E-05 5.62358E-04 2.65651E-04
 -1        77 3.33134E-05 2.27723E-04 1.74913E-04
 -1        89-9.38001E-05 9.89256E-04 1.44172E-04
 -1        90-2.10233E-05 7.68998E-04 2.32340E-04
 -1        91 2.54644E-05 5.62352E-04 2.65652E-04
 -1        92-3.33236E-05 2.27722E-04 1.74912E-04
 -1        98 0.00000E+00 0.00000E+00 0.00000E+00
 -1        99 0.00000E+00 0.00000E+00 0.00000E+00
 -1       100 0.00000E+00 0.00000E+00 0.00000E+00
 -1       101 0.00000E+00 0.00000E+00 0.00000E+00
 -1       102 0.00000E+00 0.00000E+00 0.00000E+00
 -1       124 5.97934E-06 9.11979E-04-1.35873E-04
 -1       125 1.25643E-08 1.08706E-03-1.42509E-04
 -1       126-5.94727E-06 9.12016E-04-1.35909E-04
 -1       127-6.89783E-09 8.01436E-04-2.56993E-04
 -1       128-2.72518E-06 5.89601E-04-2.85223E-04
 -1       129-8.77400E-09 5.47121E-04-2.90992E-04
 -1       130 2.70895E-06 5.89606E-04-2.85218E-04
 -1       131-4.21996E-09 2.30892E-04-1.69796E-04
 -1       153 8.02618E-05 1.17973E-03-6.40696E-05
 -1       154-1.35667E-06 1.04916E-03-2.30933E-08
 -1       155-7.82487E-05 1.18337E-03 6.40941E-05
 -1       156-1.82805E-07 8.65953E-04 2.48698E-07
 -1       157-1.61991E-05 4.88738E-04-1.14392E-04
 -1       158 2.96225E-07 4.98526E-04 8.60946E-08
 -1       159 1.57530E-05 4.87859E-04 1.14346E-04
 -1       160 4.34369E-08 1.89159E-04 1.09059E-08
 -1       182 1.83761E-06 9.10914E-04 1.35934E-04
 -1       183 5.26334E-09 1.08800E-03 1.42718E-04
 -1       184-1.84136E-06 9.10930E-04 1.35941E-04
 -1       185-1.73381E-08 8.00807E-04 2.56509E-04
 -1       186-1.79305E-06 5.89855E-04 2.85253E-04
 -1       187-6.27765E-09 5.47167E-04 2.90739E-04
 -1       188 1.77425E-06 5.89858E-04 2.85255E-04
 -1       189-5.68619E-09 2.31070E-04 1.69776E-04
 -1       211 7.82401E-05 1.18343E-03 6.40762E-05
 -1       212 1.36985E-06 1.04914E-03 2.56159E-08
 -1       213-8.02369E-05 1.17965E-03-6.41173E-05
 -1       214 1.23866E-07 8.65946E-04 2.57385E-07
 -1       215-1.57639E-05 4.87852E-04 1.14364E-04
 -1       216-2.92820E-07 4.98525E-04 9.33266E-08
 -1       217 1.61930E-05 4.88743E-04-1.14369E-04
 -1       218-5.36790E-08 1.89158E-04 2.19858E-08
 -1       250-3.02544E-08 1.17494E-03-6.35736E-05
 -1       251-9.83819E-07 7.43349E-04 5.76497E-08
 -1       252-7.81258E-08 9.49189E-04 5.33237E-08
 -1       253 9.17235E-07 7.43354E-04-1.81656E-08
 -1       254-3.29790E-08 1.17242E-03 6.36621E-05
 -1       255-5.36469E-09 8.47537E-04-2.13622E-08
 -1       256-1.65444E-08 4.81216E-04-1.27715E-04
 -1       257 1.99372E-07 5.62896E-04-1.79653E-08
 -1       258-2.32533E-08 4.98542E-04-2.09574E-09
 -1       259-2.23171E-07 5.62897E-04-9.23693E-09
 -1       260-1.55023E-08 4.81888E-04 1.27749E-04
 -1       261 3.36060E-10 2.14148E-04-9.90501E-09
 -3
    1PSTEP                         5           5           1          
  100CL  105 2.50000E-02          81                     1    5           1
 -4  DISP        4    1
 -5  D1          1    2    1    0
 -5  D2          1    2    2    0
 -5  D3          1    2    3    0
 -5  ALL         1    2    0    0    1ALL
 -1         5 0.00000E+00 0.00000E+00 0.00000E+00
 -1         6 0.00000E+00 0.00000E+00 0.00000E+00
 -1         7 0.00000E+00 0.00000E+00 0.00000E+00
 -1         8 0.00000E+00 0.00000E+00 0.00000E+00
 -1        21 0.00000E+00 0.00000E+00 0.00000E+00
 -1        22 0.00000E+00 0.00000E+00 0.00000E+00
 -1        23 0.00000E+00 0.00000E+00 0.00000E+00
 -1        24 0.00000E+00 0.00000E+00 0.00000E+00
 -1        25 0.00000E+00 0.00000E+00 0.00000E+00
 -1        26 0.00000E+00 0.00000E+00 0.00000E+00
 -1        27 0.00000E+00 0.00000E+00 0.00000E+00
 -1        28 0.00000E+00 0.00000E+00 0.00000E+00
 -1        29 0.00000E+00 0.00000E+00 0.00000E+00
 -1        30 0.00000E+00 0.00000E+00 0.00000E+00
 -1        31 0.00000E+00 0.00000E+00 0.00000E+00
 -1        32 0.00000E+00 0.00000E+00 0.00000E+00
 -1        44 7.28219E-05-7.45341E-04 1.08785E-04
 -1        45 1.70943E-05-5.79526E-04 1.75135E-04
 -1        46-1.97232E-05-4.24788E-04 2.00573E-04
 -1        47 2.48263E-05-1.72061E-04 1.31994E-04
 -1        48-2.48240E-05-1.72066E-04 1.32002E-04
 -1        49 1.97539E-05-4.24795E-04 2.00569E-04
 -1        50-1.71317E-05-5.79498E-04 1.75113E-04
 -1        51-7.28128E-05-7.45279E-04 1.08767E-04
 -1        74-7.11935E-05-7.45862E-04-1.08787E-04
 -1        75-1.63826E-05-5.80013E-04-1.75210E-04
 -1        76 1.93730E-05-4.24560E-04-2.00608E-04
 -1        77-2.50551E-05-1.71942E-04-1.31992E-04
 -1        89 7.11923E-05-7.45939E-04-1.08809E-04
 -1        90 1.63464E-05-5.80038E-04-1.75233E-04
 -1        91-1.93429E-05-4.24554E-04-2.00612E-04
 -1        92 2.50570E-05-1.71938E-04-1.31984E-04
 -1        98 0.00000E+00 0.00000E+00 0.00000E+00
 -1        99 0.00000E+00 0.00000E+00 0.00000E+00
 -1       100 0.00000E+00 0.00000E+00 0.00000E+00
 -1       101 0.00000E+00 0.00000E+00 0.00000E+00
 -1       102 0.00000E+00 0.00000E+00 0.00000E+00
 -1       124-3.18713E-06-6.87749E-04 1.02563E-04
 -1       125-4.63762E-08-8.21133E-04 1.07496E-04
 -1       126 3.16110E-06-6.87738E-04 1.02536E-04
 -1       127 1.26242E-08-6.04687E-04 1.93924E-04
 -1       128 1.74623E-06-4.45242E-04 2.15283E-04
 -1       129-1.37883E-08-4.13035E-04 2.19529E-04
 -1       130-1.74923E-06-4.45247E-04 2.15294E-04
 -1       131 3.96845E-09-1.74351E-04 1.28191E-04
 -1       153-5.95830E-05-8.90612E-04 4.83425E-05
 -1       154 6.07470E-07-7.90181E-04-4.21648E-09
 -1       155 5.88892E-05-8.91095E-04-4.83409E-05
 -1       156 1.88691E-07-6.53821E-04-5.34661E-08
 -1       157 1.19876E-05-3.68481E-04 8.63881E-05
 -1       158-1.62443E-07-3.75959E-04-1.24223E-08
 -1       159-1.18238E-05-3.68319E-04-8.63775E-05
 -1       160-5.27043E-08-1.42834E-04-6.33232E-09
 -1       182-2.25042E-06-6.87733E-04-1.02559E-04
 -1       183-4.83979E-08-8.20874E-04-1.07570E-04
 -1       184 2.21731E-06-6.87731E-04-1.02543E-04
 -1       185 1.05555E-08-6.04275E-04-1.93837E-04
 -1       186 1.53671E-06-4.45248E-04-2.15297E-04
 -1       187-1.28659E-08-4.13246E-04-2.19453E-04
 -1       188-1.53907E-06-4.45253E-04-2.15306E-04
 -1       189 3.86879E-09-1.74465E-04-1.28185E-04
 -1       211-5.88631E-05-8.91162E-04-4.83500E-05
 -1       212-6.10472E-07-7.90184E-04-3.25398E-08
 -1       213 5.96154E-05-8.90555E-04 4.83250E-05
 -1       214-1.58933E-07-6.53823E-04-5.11256E-08
 -1       215 1.18253E-05-3.68310E-04-8.63817E-05
 -1       216 1.45783E-07-3.75958E-04-1.15594E-08
 -1       217-1.19859E-05-3.68490E-04 8.63861E-05
 -1       218 5.51995E-08-1.42834E-04-1.44931E-08
 -1       250 4.53108E-09-8.87167E-04 4.79688E-05
 -1       251 3.97467E-08-5.61045E-04-4.72677E-08
 -1       252 6.89881E-08-7.17177E-04-3.92295E-08
 -1       253 1.71844E-08-5.61044E-04-9.10697E-09
 -1       254 4.00549E-09-8.86644E-04-4.79997E-05
 -1       255-1.08569E-09-6.39344E-04 1.82213E-08
 -1       256 1.12831E-09-3.63519E-04 9.63458E-05
 -1       257 1.13923E-08-4.24805E-04 6.83279E-09
 -1       258 1.27275E-08-3.76698E-04 2.07994E-11
 -1       259-3.52875E-09-4.24805E-04 3.95506E-10
 -1       260 1.46099E-09-3.63706E-04-9.63619E-05
 -1       261-4.35966E-09-1.61678E-04 7.32905E-09
 -3
    1PSTEP                         6           6           1          
  100CL  106 3.00000E-02          81                     1    6           1
 -4  DISP        4    1
 -5  D1          1    2    1    0
 -5  D2          1    2    2    0
 -5  D3          1    2    3    0
 -5  ALL         1    2    0    0    1ALL
 -1         5 0.00000E+00 0.00000E+00 0.00000E+00
 -1         6 0.00000E+00 0.00000E+00 0.00000E+00
 -1         7 0.00000E+00 0.00000E+00 0.00000E+00
 -1         8 0.00000E+00 0.00000E+00 0.00000E+00
 -1        21 0.00000E+00 0.00000E+00 0.00000E+00
 -1        22 0.00000E+00 0.00000E+00 0.00000E+00
 -1        23 0.00000E+00 0.00000E+00 0.00000E+00
 -1        24 0.00000E+00 0.00000E+00 0.00000E+00
 -1        25 0.00000E+00 0.00000E+00 0.00000E+00
 -1        26 0.00000E+00 0.00000E+00 0.00000E+00
 -1        27 0.00000E+00 0.00000E+00 0.00000E+00
 -1        28 0.00000E+00 0.00000E+00 0.00000E+00
 -1        29 0.00000E+00 0.00000E+00 0.00000E+00
 -1        30 0.00000E+00 0.00000E+00 0.00000E+00
 -1        31 0.00000E+00 0.00000E+00 0.00000E+00
 -1        32 0.00000E+00 0.00000E+00 0.00000E+00
 -1        44-5.40292E-05 5.38554E-04-7.88212E-05
 -1        45-1.30870E-05 4.19045E-04-1.26940E-04
 -1        46 1.46505E-05 3.08420E-04-1.45304E-04
 -1        47-1.77590E-05 1.25042E-04-9.57018E-05