
 displacements (vx,vy,vz) for set NALL and time  0.1000000E-01

         5  0.000000E+00  0.000000E+00  0.000000E+00
         6  0.000000E+00  0.000000E+00  0.000000E+00
         7  0.000000E+00  0.000000E+00  0.000000E+00
         8  0.000000E+00  0.000000E+00  0.000000E+00
        21  0.000000E+00  0.000000E+00  0.000000E+00
        22  0.000000E+00  0.000000E+00  0.000000E+00
        23  0.000000E+00  0.000000E+00  0.000000E+00
        24  0.000000E+00  0.000000E+00  0.000000E+00
        25  0.000000E+00  0.000000E+00  0.000000E+00
        26  0.000000E+00  0.000000E+00  0.000000E+00
        27  0.000000E+00  0.000000E+00  0.000000E+00
        28  0.000000E+00  0.000000E+00  0.000000E+00
        29  0.000000E+00  0.000000E+00  0.000000E+00
        30  0.000000E+00  0.000000E+00  0.000000E+00
        31  0.000000E+00  0.000000E+00  0.000000E+00
        32  0.000000E+00  0.000000E+00  0.000000E+00
        44  1.550946E-04 -2.021180E-03  2.888803E-04
        45  4.236237E-05 -1.557579E-03  4.714955E-04
        46 -4.827292E-05 -1.132597E-03  5.446997E-04
        47  6.918583E-05 -4.535692E-04  3.505795E-04
        48 -6.916296E-05 -4.535587E-04  3.505442E-04
        49  4.832205E-05 -1.132589E-03  5.446416E-04
        50 -4.219610E-05 -1.557584E-03  4.714378E-04
        51 -1.549943E-04 -2.021149E-03  2.888564E-04
        74 -1.309548E-04 -2.108715E-03 -2.933227E-04
        75 -1.943402E-05 -1.595552E-03 -4.712478E-04
        76  3.377514E-05 -1.114298E-03 -5.447181E-04
        77 -7.629425E-05 -4.397906E-04 -3.519945E-04
        89  1.311568E-04 -2.108778E-03 -2.934610E-04
        90  1.958288E-05 -1.595551E-03 -4.713390E-04
        91 -3.371375E-05 -1.114310E-03 -5.447743E-04
        92  7.631516E-05 -4.398013E-04 -3.520278E-04
        98  0.000000E+00  0.000000E+00  0.000000E+00
        99  0.000000E+00  0.000000E+00  0.000000E+00
       100  0.000000E+00  0.000000E+00  0.000000E+00
       101  0.000000E+00  0.000000E+00  0.000000E+00
       102  0.000000E+00  0.000000E+00  0.000000E+00
       124  8.963242E-06 -1.838510E-03  2.727686E-04
       125  1.151897E-07 -2.201645E-03  2.860710E-04
       126 -8.792470E-06 -1.838532E-03  2.728394E-04
       127  5.585597E-08 -1.613286E-03  5.245479E-04
       128  2.730903E-06 -1.194686E-03  5.777092E-04
       129  4.486087E-08 -1.107954E-03  5.863638E-04
       130 -2.663094E-06 -1.194689E-03  5.777236E-04
       131  6.757089E-09 -4.650950E-04  3.432793E-04
       153 -1.259240E-04 -2.363851E-03  1.275171E-04
       154 -1.117572E-05 -2.023744E-03 -1.941614E-06
       155  1.266536E-04 -2.386823E-03 -1.319742E-04
       156 -1.100256E-05 -1.745260E-03 -6.029194E-06
       157  2.460532E-05 -9.779996E-04  2.329785E-04
       158  8.220969E-06 -1.001214E-03 -2.705096E-06
       159 -2.206483E-05 -9.750478E-04 -2.346681E-04
       160  3.715589E-06 -3.865178E-04  4.851779E-07
       182  5.955060E-06 -1.801078E-03 -2.766803E-04
       183  1.266020E-07 -2.272868E-03 -2.885473E-04
       184 -5.729812E-06 -1.801118E-03 -2.767779E-04
       185  5.707251E-08 -1.638551E-03 -5.220039E-04
       186 -5.087817E-07 -1.214395E-03 -5.809664E-04
       187  4.025885E-08 -1.110050E-03 -5.885460E-04
       188  5.787089E-07 -1.214399E-03 -5.809885E-04
       189  6.866318E-09 -4.636648E-04 -3.440694E-04
       211 -1.264626E-04 -2.386861E-03 -1.320644E-04
       212  1.134660E-05 -2.023764E-03 -2.005225E-06
       213  1.260525E-04 -2.363844E-03  1.274930E-04
       214  1.115666E-05 -1.745252E-03 -6.099751E-06
       215  2.212535E-05 -9.750566E-04 -2.347292E-04
       216 -8.160751E-06 -1.001220E-03 -2.763912E-06
       217 -2.454842E-05 -9.779990E-04  2.329164E-04
       218 -3.688700E-06 -3.865180E-04  4.537610E-07
       250  1.228654E-07 -2.395487E-03  1.252060E-04
       251  2.854764E-06 -1.516055E-03 -9.773857E-07
       252  1.264553E-07 -1.919944E-03 -1.423282E-06
       253 -2.641548E-06 -1.516039E-03 -9.155161E-07
       254  1.313785E-07 -2.426639E-03 -1.326955E-04
       255  6.163997E-08 -1.694668E-03 -3.005759E-06
       256  4.324380E-08 -9.768565E-04  2.557616E-04
       257 -3.762065E-06 -1.128331E-03 -1.169738E-06
       258  4.104903E-08 -1.024097E-03 -1.411750E-06
       259  3.832041E-06 -1.128329E-03 -1.147733E-06
       260  4.007047E-08 -9.784148E-04 -2.579269E-04
       261  9.278801E-09 -4.346525E-04 -1.698652E-07

 forces (fx,fy,fz) for set NALL and time  0.1000000E-01

         5  1.978366E+00 -7.879809E-01 -1.080493E+00
         6 -1.978400E+00 -7.879471E-01 -1.080306E+00
         7  2.091222E+00 -2.962589E-01  1.095907E+00
         8 -2.091303E+00 -2.962170E-01  1.095828E+00
        21 -1.353579E+00  2.252863E+00 -1.112525E+01
        22 -2.482329E-04 -1.669679E+00 -1.558617E+00
        23  1.353918E+00  2.252887E+00 -1.112617E+01
        24 -1.663382E+00  7.812471E+00 -5.931630E+00
        25  8.199509E-02 -3.642835E+00 -4.265433E-02
        26  1.432209E+00  7.464041E+00  5.958068E+00
        27 -1.273801E+00  1.693837E+00  1.109796E+01
        28 -1.538153E-04 -9.023114E-01  1.661334E+00
        29  1.274145E+00  1.693917E+00  1.109868E+01
        30 -1.432189E+00  7.464024E+00  5.958646E+00
        31 -8.215705E-02 -3.642807E+00 -4.287206E-02
        32  1.663630E+00  7.812425E+00 -5.931102E+00
        44  6.698728E+00  2.074925E+01  9.285640E-01
        45 -1.780385E-06 -6.080691E-01  1.525512E-01
        46  1.359721E-06  1.541496E+00 -4.634069E-01
        47 -4.750144E-07 -1.167017E+00  5.403022E-01
        48  5.251323E-07 -1.167017E+00  5.403023E-01
        49 -1.222701E-06  1.541496E+00 -4.634069E-01
        50  1.330286E-06 -6.080697E-01  1.525511E-01
        51 -6.699039E+00  2.074920E+01  9.293054E-01
        74 -7.231372E+00  1.755416E+01 -8.871670E-01
        75  1.584283E-07 -6.080905E-01 -1.525442E-01
        76 -4.080361E-07  1.541511E+00  4.634049E-01
        77  1.004716E-06 -1.167020E+00 -5.403012E-01
        89  7.231390E+00  1.755404E+01 -8.867645E-01
        90 -8.695606E-07 -6.080895E-01 -1.525442E-01
        91  5.308393E-07  1.541511E+00  4.634049E-01
        92 -8.560160E-07 -1.167021E+00 -5.403012E-01
        98 -3.911805E-04  1.710667E+01 -1.028291E+01
        99 -1.740854E-02 -4.852294E+00  6.123579E-02
       100 -3.670921E-04 -7.700901E+00 -3.492211E-02
       101  1.804329E-02 -4.852328E+00  5.984441E-02
       102 -3.330627E-04  1.686394E+01  1.021967E+01
       124  8.413090E+00  1.980792E+01 -5.502149E-01
       125  1.310416E-04  4.300510E+01  1.751973E+00
       126 -8.413150E+00  1.980771E+01 -5.484586E-01
       127  1.143265E-07 -1.216138E+00  3.051001E-01
       128  1.141945E-06 -2.615808E+00  9.358554E-01
       129 -5.509333E-08  3.082992E+00 -9.268130E-01
       130 -1.251244E-06 -2.615807E+00  9.358551E-01
       131  1.381361E-07 -2.334034E+00  1.080604E+00
       153 -3.798235E+00 -6.698598E+01 -1.452199E+00
       154 -2.867399E-01  4.401814E+01  4.101104E-02
       155  5.258206E+00 -6.468921E+01  1.366509E+00
       156 -2.930373E-06 -1.216157E+00 -6.201026E-06
       157 -1.899676E-06 -2.615810E+00  7.018891E-01
       158  1.449589E-06  3.083007E+00  2.902956E-06
       159 -3.775853E-08 -2.615825E+00 -7.018898E-01
       160 -2.976500E-07 -2.334038E+00 -8.446955E-07
       182  7.626293E+00  2.403899E+01  5.325145E-01
       183  2.187771E-04  3.747781E+01 -1.600363E+00
       184 -7.626488E+00  2.403871E+01  5.308657E-01
       185  3.173562E-07 -1.742499E+00 -3.050870E-01
       186  6.264696E-07 -3.142145E+00 -9.358487E-01
       187 -1.176018E-07  2.556708E+00  9.268100E-01
       188 -7.230716E-07 -3.142145E+00 -9.358486E-01
       189  1.029511E-07 -2.860359E+00 -1.080601E+00
       211 -5.258487E+00 -6.468927E+01  1.365891E+00
       212  2.866132E-01  4.401791E+01  4.207441E-02
       213  3.797407E+00 -6.698591E+01 -1.452023E+00
       214  2.322863E-06 -1.216158E+00 -5.743814E-06
       215 -3.827055E-07 -2.615825E+00 -7.018899E-01
       216 -1.162905E-06  3.083007E+00  2.677808E-06
       217  1.560945E-06 -2.615810E+00  7.018892E-01
       218  1.533645E-07 -2.334038E+00 -1.144621E-06
       250  6.599712E-04 -1.377678E+02 -2.991121E+00
       251  4.602846E-01  5.823989E+01  5.064143E-02
       252  4.462849E-04  9.252385E+01  1.294967E-01
       253 -4.604926E-01  5.824016E+01  5.355718E-02
       254  7.210953E-04 -1.354680E+02  2.575658E+00
       255  8.217735E-07 -2.432317E+00 -1.518432E-05
       256  2.152191E-07 -5.231619E+00  1.403776E+00
       257  1.809440E-06 -5.231635E+00 -6.650263E-06
       258 -1.664773E-07  6.166016E+00  5.973294E-06
       259 -1.731039E-06 -5.231635E+00 -6.743426E-06
       260  4.177695E-07 -5.231653E+00 -1.403779E+00
       261 -1.160661E-07 -4.668078E+00 -2.329095E-06

 displacements (vx,vy,vz) for set NALL and time  0.2000000E-01

         5  0.000000E+00  0.000000E+00  0.000000E+00
         6  0.000000E+00  0.000000E+00  0.000000E+00
         7  0.000000E+00  0.000000E+00  0.000000E+00
         8  0.000000E+00  0.000000E+00  0.000000E+00
        21  0.000000E+00  0.000000E+00  0.000000E+00
        22  0.000000E+00  0.000000E+00  0.000000E+00
        23  0.000000E+00  0.000000E+00  0.000000E+00
        24  0.000000E+00  0.000000E+00  0.000000E+00
        25  0.000000E+00  0.000000E+00  0.000000E+00
        26  0.000000E+00  0.000000E+00  0.000000E+00
        27  0.000000E+00  0.000000E+00  0.000000E+00
        28  0.000000E+00  0.000000E+00  0.000000E+00
        29  0.000000E+00  0.000000E+00  0.000000E+00
        30  0.000000E+00  0.000000E+00  0.000000E+00
        31  0.000000E+00  0.000000E+00  0.000000E+00
        32  0.000000E+00  0.000000E+00  0.000000E+00
        44 -1.519551E-04  1.606412E-03 -2.336903E-04
        45 -3.565393E-05  1.248676E-03 -3.761694E-04
        46  4.186108E-05  9.137050E-04 -4.321611E-04
        47 -5.394251E-05  3.697338E-04 -2.839767E-04
        48  5.393812E-05  3.697346E-04 -2.839715E-04
        49 -4.189701E-05  9.136630E-04 -4.321394E-04
        50  3.557731E-05  1.248733E-03 -3.761054E-04
        51  1.518224E-04  1.606238E-03 -2.334938E-04
        74  1.534835E-04  1.607395E-03  2.337641E-04
        75  3.619830E-05  1.248652E-03  3.762439E-04
        76 -4.201631E-05  9.137676E-04  4.321271E-04
        77  5.381295E-05  3.695915E-04  2.840170E-04
        89 -1.538093E-04  1.607283E-03  2.338932E-04
        90 -3.621214E-05  1.248685E-03  3.762951E-04
        91  4.196117E-05  9.137665E-04  4.321541E-04
        92 -5.381146E-05  3.696000E-04  2.840291E-04
        98  0.000000E+00  0.000000E+00  0.000000E+00
        99  0.000000E+00  0.000000E+00  0.000000E+00
       100  0.000000E+00  0.000000E+00  0.000000E+00
       101  0.000000E+00  0.000000E+00  0.000000E+00
       102  0.000000E+00  0.000000E+00  0.000000E+00
       124  2.706700E-06  1.478588E-03 -2.201878E-04
       125 -6.065357E-08  1.768901E-03 -2.306907E-04
       126 -2.826635E-06  1.478699E-03 -2.202927E-04
       127 -2.556109E-08  1.300895E-03 -4.176327E-04
       128 -3.045503E-06  9.589280E-04 -4.632411E-04
       129 -2.321206E-08  8.892571E-04 -4.720164E-04
       130  3.003951E-06  9.589436E-04 -4.632506E-04
       131 -2.353468E-09  3.754265E-04 -2.759296E-04
       153  1.248767E-04  1.914352E-03 -1.037817E-04
       154  9.375212E-07  1.690468E-03  1.501621E-07
       155 -1.260713E-04  1.913657E-03  1.038637E-04
       156  4.194144E-07  1.406877E-03  7.202467E-08
       157 -2.487120E-05  7.922777E-04 -1.859929E-04
       158 -4.449901E-07  8.088384E-04  6.963431E-08
       159  2.491487E-05  7.926280E-04  1.861143E-04
       160 -1.671517E-07  3.081254E-04 -3.197003E-08
       182  4.690215E-06  1.478090E-03  2.204815E-04
       183 -4.430801E-08  1.770871E-03  2.309706E-04
       184 -4.880324E-06  1.478022E-03  2.204452E-04
       185 -5.268943E-08  1.302162E-03  4.178031E-04
       186 -3.360200E-06  9.596701E-04  4.633790E-04
       187  1.118556E-08  8.895984E-04  4.722744E-04
       188  3.341730E-06  9.596704E-04  4.634152E-04
       189 -1.459054E-09  3.753924E-04  2.760085E-04
       211  1.258402E-04  1.913619E-03  1.040133E-04
       212 -1.041588E-06  1.690506E-03  1.678761E-07
       213 -1.249731E-04  1.914300E-03 -1.037614E-04
       214 -4.883849E-07  1.406842E-03  1.149493E-07
       215 -2.495277E-05  7.926490E-04  1.861266E-04
       216  4.220621E-07  8.088813E-04  1.009395E-07
       217  2.483701E-05  7.922762E-04 -1.859465E-04
       218  1.577447E-07  3.081248E-04 -2.194975E-08
       250 -6.377828E-08  1.910048E-03 -1.027474E-04
       251  2.795054E-07  1.208589E-03  1.076837E-07
       252 -5.020507E-08  1.543397E-03 -9.966526E-08
       253 -3.851213E-07  1.208559E-03  1.008708E-07
       254 -4.275379E-08  1.912034E-03  1.030883E-04
       255 -3.468757E-08  1.373677E-03  1.505617E-07
       256 -1.487981E-08  7.836478E-04 -2.071528E-04
       257  4.573153E-08  9.137855E-04  6.711548E-08
       258 -1.013290E-08  8.130570E-04  8.794441E-08
       259 -6.568548E-08  9.137664E-04  5.145052E-08
       260 -7.782490E-10  7.835831E-04  2.072475E-04
       261 -3.443594E-09  3.485161E-04  1.516661E-08

 forces (fx,fy,fz) for set NALL and time  0.2000000E-01

         5 -1.685553E+00  3.827936E-01  9.244146E-01
         6  1.685797E+00  3.824617E-01  9.246827E-01
         7 -1.694582E+00  3.673914E-01 -9.252396E-01
         8  1.694856E+00  3.672995E-01 -9.253074E-01
        21  1.076971E+00 -1.647878E+00  8.956492E+00
        22  1.393688E-04  7.476247E-01  1.405479E+00
        23 -1.077209E+00 -1.648487E+00  8.956860E+00
        24  1.169994E+00 -5.891702E+00  4.717402E+00
        25 -1.384698E-02  2.454569E+00  9.138647E-05
        26 -1.152611E+00 -5.882343E+00 -4.715929E+00
        27  1.075162E+00 -1.632327E+00 -8.957864E+00
        28 -2.124549E-04  7.320089E-01 -1.405861E+00
        29 -1.075204E+00 -1.632147E+00 -8.957468E+00
        30  1.153128E+00 -5.882065E+00 -4.716766E+00
        31  1.388098E-02  2.454075E+00 -4.831939E-05
        32 -1.169879E+00 -5.891763E+00  4.717542E+00
        44 -6.253459E+00 -1.511130E+01 -7.496900E-01
        45  1.523554E-06  5.208624E-01 -1.306730E-01
        46 -1.164844E-06 -1.320421E+00  3.969471E-01
        47  4.086961E-07  9.996487E-01 -4.628144E-01
        48 -4.516253E-07  9.996484E-01 -4.628145E-01
        49  1.047469E-06 -1.320422E+00  3.969471E-01
        50 -1.138001E-06  5.208629E-01 -1.306729E-01
        51  6.252900E+00 -1.511226E+01 -7.485925E-01
        74  6.312060E+00 -1.502139E+01  7.466650E-01
        75 -1.340984E-07  5.208807E-01  1.306670E-01
        76  3.495738E-07 -1.320435E+00 -3.969454E-01
        77 -8.624414E-07  9.996514E-01  4.628136E-01
        89 -6.312844E+00 -1.502132E+01  7.469957E-01
        90  7.432492E-07  5.208799E-01  1.306670E-01
        91 -4.547702E-07 -1.320434E+00 -3.969454E-01
        92  7.350678E-07  9.996518E-01  4.628136E-01
        98 -1.943754E-04 -1.291081E+01  8.217711E+00
        99 -1.194967E-02  3.911906E+00 -2.644916E-03
       100  4.859564E-05  5.332635E+00  2.993574E-03
       101  1.169646E-02  3.912421E+00 -2.391068E-03
       102 -3.208831E-04 -1.291812E+01 -8.218224E+00
       124 -6.712458E+00 -1.697487E+01  4.585985E-01
       125 -4.377131E-04 -3.107601E+01 -1.387609E+00
       126  6.712882E+00 -1.697376E+01  4.580103E-01
       127 -9.792447E-08  1.041725E+00 -2.613440E-01
       128 -9.787208E-07  2.240660E+00 -8.016390E-01
       129  4.718704E-08 -2.640843E+00  7.938935E-01
       130  1.072352E-06  2.240660E+00 -8.016388E-01
       131 -1.183243E-07  1.999297E+00 -9.256283E-01
       153  4.565054E+00  5.172113E+01  1.169988E+00
       154  1.071182E-01 -3.309261E+01 -2.762471E-03
       155 -4.697121E+00  5.165796E+01 -1.168106E+00
       156  2.509984E-06  1.041741E+00  5.311488E-06
       157  1.627732E-06  2.240662E+00 -6.012272E-01
       158 -1.241695E-06 -2.640856E+00 -2.486493E-06
       159  3.193320E-08  2.240675E+00  6.012278E-01
       160  2.550542E-07  1.999301E+00  7.235554E-07
       182 -6.690202E+00 -1.708342E+01 -4.547063E-01
       183  2.395694E-05 -3.101362E+01  1.379315E+00
       184  6.690959E+00 -1.708407E+01 -4.565799E-01
       185 -2.718365E-07  1.069464E+00  2.613328E-01
       186 -5.371127E-07  2.268379E+00  8.016334E-01
       187  1.007309E-07 -2.613169E+00 -7.938909E-01
       188  6.198667E-07  2.268379E+00  8.016333E-01
       189 -8.818547E-08  2.027006E+00  9.256261E-01
       211  4.695903E+00  5.165761E+01 -1.165848E+00
       212 -1.070939E-01 -3.309211E+01 -2.832256E-03
       213 -4.564803E+00  5.172209E+01  1.168474E+00
       214 -1.989588E-06  1.041741E+00  4.919843E-06
       215  3.282362E-07  2.240675E+00  6.012279E-01
       216  9.961158E-07 -2.640856E+00 -2.293631E-06
       217 -1.337575E-06  2.240662E+00 -6.012273E-01
       218 -1.314596E-07  1.999301E+00  9.804651E-07
       250  2.132096E-04  1.049478E+02  2.324015E+00
       251  9.387709E-02 -4.727812E+01  4.830077E-03
       252  1.581210E-06 -6.982017E+01 -1.618808E-02
       253 -9.326567E-02 -4.727916E+01  6.067070E-03
       254  5.812627E-04  1.050293E+02 -2.305967E+00
       255 -7.039065E-07  2.083484E+00  1.300627E-05
       256 -1.843468E-07  4.481323E+00 -1.202452E+00
       257 -1.550003E-06  4.481336E+00  5.696315E-06
       258  1.425917E-07 -5.281712E+00 -5.116356E-06
       259  1.482858E-06  4.481336E+00  5.776121E-06
       260 -3.578485E-07  4.481352E+00  1.202455E+00
       261  9.942233E-08  3.998602E+00  1.995054E-06

 displacements (vx,vy,vz) for set NALL and time  0.3000000E-01

         5  0.000000E+00  0.000000E+00  0.000000E+00
         6  0.000000E+00  0.000000E+00  0.000000E+00
         7  0.000000E+00  0.000000E+00  0.000000E+00
         8  0.000000E+00  0.000000E+00  0.000000E+00
        21  0.000000E+00  0.000000E+00  0.000000E+00
        22  0.000000E+00  0.000000E+00  0.000000E+00
        23  0.000000E+00  0.000000E+00  0.000000E+00
        24  0.000000E+00  0.000000E+00  0.000000E+00
        25  0.000000E+00  0.000000E+00  0.000000E+00
        26  0.000000E+00  0.000000E+00  0.000000E+00
        27  0.000000E+00  0.000000E+00  0.000000E+00
        28  0.000000E+00  0.000000E+00  0.000000E+00
        29  0.000000E+00  0.000000E+00  0.000000E+00
        30  0.000000E+00  0.000000E+00  0.000000E+00
        31  0.000000E+00  0.000000E+00  0.000000E+00
        32  0.000000E+00  0.000000E+00  0.000000E+00
        44  1.029010E-04 -1.286924E-03  1.848340E-04
        45  2.002717E-05 -9.953977E-04  2.979691E-04
        46 -2.946354E-05 -7.207163E-04  3.424052E-04
        47  4.499405E-05 -2.905663E-04  2.245196E-04
        48 -4.503338E-05 -2.905839E-04  2.245940E-04
        49  2.936555E-05 -7.207554E-04  3.425400E-04
        50 -2.037492E-05 -9.953650E-04  2.981347E-04
        51 -1.034053E-04 -1.286952E-03  1.851230E-04
        74 -1.149207E-04 -1.272725E-03 -1.850642E-04
        75 -2.731814E-05 -9.877732E-04 -2.982505E-04
        76  3.135974E-05 -7.231888E-04 -3.426602E-04
        77 -4.319289E-05 -2.926884E-04 -2.245897E-04
        89  1.144636E-04 -1.273105E-03 -1.851555E-04
        90  2.700039E-05 -9.877213E-04 -2.981925E-04
        91 -3.145076E-05 -7.232036E-04 -3.425165E-04
        92  4.315561E-05 -2.926614E-04 -2.245049E-04
        98  0.000000E+00  0.000000E+00  0.000000E+00
        99  0.000000E+00  0.000000E+00  0.000000E+00
       100  0.000000E+00  0.000000E+00  0.000000E+00
       101  0.000000E+00  0.000000E+00  0.000000E+00
       102  0.000000E+00  0.000000E+00  0.000000E+00
       124  7.700795E-06 -1.166431E-03  1.740974E-04
       125 -3.178181E-07 -1.402726E-03  1.828965E-04
       126 -8.241925E-06 -1.166343E-03  1.738775E-04
       127 -1.099964E-07 -1.029119E-03  3.290496E-04
       128  1.314192E-07 -7.604691E-04  3.668039E-04
       129 -9.388893E-08 -7.035402E-04  3.727242E-04
       130 -2.783300E-07 -7.604645E-04  3.667529E-04
       131 -1.054436E-08 -2.976957E-04  2.186084E-04
       153 -9.161483E-05 -1.523952E-03  8.189312E-05
       154 -1.601495E-06 -1.332726E-03 -1.295334E-07
       155  9.478051E-05 -1.505825E-03 -8.208080E-05
       156  4.690152E-07 -1.114524E-03  6.379978E-07
       157  1.793590E-05 -6.245288E-04  1.472554E-04
       158  3.267452E-07 -6.391761E-04  2.571139E-07
       159 -1.877435E-05 -6.282508E-04 -1.474790E-04
       160 -2.449766E-07 -2.442689E-04 -2.972492E-08
       182 -9.274855E-06 -1.171587E-03 -1.740753E-04
       183 -2.588878E-07 -1.395973E-03 -1.826060E-04
       184  8.806393E-06 -1.171749E-03 -1.740982E-04
       185 -1.408526E-07 -1.028538E-03 -3.304337E-04
       186  3.692996E-06 -7.593788E-04 -3.666960E-04
       187 -6.450471E-08 -7.055875E-04 -3.732602E-04
       188 -3.807389E-06 -7.593915E-04 -3.666343E-04
       189 -9.572427E-09 -2.978155E-04 -2.186532E-04
       211 -9.517145E-05 -1.506036E-03 -8.190345E-05
       212  1.221625E-06 -1.332744E-03 -8.375610E-08
       213  9.121017E-05 -1.523935E-03  8.210975E-05
       214 -7.623640E-07 -1.114540E-03  7.819828E-07
       215  1.865224E-05 -6.282396E-04 -1.473902E-04
       216 -4.604085E-07 -6.391473E-04  3.903557E-07
       217 -1.806102E-05 -6.245404E-04  1.473791E-04
       218  1.960104E-07 -2.442696E-04  3.968098E-08
       250 -2.768942E-07 -1.508792E-03  8.160258E-05
       251 -6.983217E-06 -9.561133E-04 -3.598682E-08
       252 -1.940699E-07 -1.227757E-03 -7.330714E-08
       253  6.588647E-06 -9.560992E-04 -8.937792E-08
       254 -2.242598E-07 -1.520870E-03 -8.149500E-05
       255 -1.302765E-07 -1.087737E-03  2.339374E-08
       256 -7.895411E-08 -6.219971E-04  1.637511E-04
       257  1.389381E-06 -7.232282E-04 -1.256137E-08
       258 -7.068373E-08 -6.439205E-04  1.502804E-09
       259 -1.521225E-06 -7.232445E-04 -7.202754E-08
       260 -7.034551E-08 -6.196005E-04 -1.636861E-04
       261 -2.015840E-08 -2.755556E-04  2.173013E-08

 forces (fx,fy,fz) for set NALL and time  0.3000000E-01

         5  1.303409E+00 -2.877174E-01 -7.338354E-01
         6 -1.303037E+00 -2.880385E-01 -7.341895E-01
         7  1.285885E+00 -2.933969E-01  7.330157E-01
         8 -1.285557E+00 -2.934717E-01  7.338143E-01
        21 -8.352692E-01  1.284136E+00 -7.086333E+00
        22  7.936972E-04 -5.137879E-01 -1.128014E+00
        23  8.340253E-01  1.283343E+00 -7.084767E+00
        24 -9.768617E-01  4.672658E+00 -3.743447E+00
        25  5.405134E-02 -1.926724E+00  7.688346E-03
        26  9.637410E-01  4.639527E+00  3.736750E+00
        27 -7.918169E-01  1.330729E+00  7.095518E+00
        28  6.196734E-04 -6.576086E-01  1.112207E+00
        29  7.908226E-01  1.330925E+00  7.094318E+00
        30 -9.639498E-01  4.640064E+00  3.734168E+00
        31 -5.343031E-02 -1.927188E+00  8.782420E-03
        32  9.767472E-01  4.672183E+00 -3.745086E+00
        44  4.654927E+00  1.188194E+01  6.045414E-01
        45 -1.208732E-06 -4.142535E-01  1.039271E-01
        46  9.266220E-07  1.050161E+00 -3.157010E-01
        47 -3.285332E-07 -7.950432E-01  3.680867E-01
        48  3.626747E-07 -7.950430E-01  3.680869E-01
        49 -8.332657E-07  1.050161E+00 -3.157010E-01
        50  9.020867E-07 -4.142539E-01  1.039271E-01
        51 -4.655676E+00  1.188097E+01  6.025339E-01
        74 -4.573144E+00  1.195955E+01 -6.025873E-01
        75  1.035276E-07 -4.142681E-01 -1.039224E-01
        76 -2.781230E-07  1.050171E+00  3.156996E-01
        77  6.894169E-07 -7.950454E-01 -3.680861E-01
        89  4.572902E+00  1.195919E+01 -6.060717E-01
        90 -5.880053E-07 -4.142675E-01 -1.039224E-01
        91  3.617932E-07  1.050171E+00  3.156996E-01
        92 -5.881146E-07 -7.950458E-01 -3.680861E-01
        98  4.157633E-04  1.011802E+01 -6.491227E+00
        99  9.041959E-02 -3.149409E+00 -9.477109E-03
       100  4.424691E-04 -4.138832E+00  2.462857E-03
       101 -9.138621E-02 -3.149014E+00 -7.202514E-03
       102  3.284602E-04  1.030815E+01  6.505078E+00
       124  5.212394E+00  1.366142E+01 -3.816745E-01
       125 -1.765642E-03  2.389514E+01  1.117113E+00
       126 -5.210831E+00  1.366304E+01 -3.863271E-01
       127  7.787554E-08 -8.285072E-01  2.078527E-01
       128  7.794213E-07 -1.782047E+00  6.375617E-01
       129 -3.752371E-08  2.100322E+00 -6.314014E-01
       130 -8.538949E-07 -1.782047E+00  6.375615E-01
       131  9.410505E-08 -1.590086E+00  7.361732E-01
       153 -3.106101E+00 -4.099652E+01 -9.385085E-01
       154 -5.437558E-01  2.607652E+01  2.996782E-04
       155  3.306724E+00 -4.072485E+01  9.386377E-01
       156 -1.996101E-06 -8.285202E-01 -4.224048E-06
       157 -1.295494E-06 -1.782049E+00  4.781696E-01
       158  9.875584E-07  2.100332E+00  1.977374E-06
       159 -2.460305E-08 -1.782059E+00 -4.781701E-01
       160 -2.029706E-07 -1.590089E+00 -5.754623E-07
       182  4.876342E+00  1.321963E+01  3.785921E-01
       183 -9.667119E-04  2.524653E+01 -1.113255E+00
       184 -4.874699E+00  1.321900E+01  3.802884E-01
       185  2.161915E-07 -8.299959E-01 -2.078438E-01
       186  4.281190E-07 -1.783520E+00 -6.375571E-01
       187 -8.010840E-08  2.098886E+00  6.313994E-01
       188 -4.939414E-07 -1.783520E+00 -6.375571E-01
       189  7.013513E-08 -1.591550E+00 -7.361714E-01
       211 -3.306506E+00 -4.072806E+01  9.446103E-01
       212  5.450367E-01  2.607646E+01 -5.844391E-03
       213  3.106492E+00 -4.099268E+01 -9.342681E-01
       214  1.582205E-06 -8.285203E-01 -3.912559E-06
       215 -2.618543E-07 -1.782059E+00 -4.781701E-01
       216 -7.922331E-07  2.100332E+00  1.823982E-06
       217  1.064718E-06 -1.782049E+00  4.781696E-01
       218  1.046710E-07 -1.590089E+00 -7.797866E-07
       250 -1.587504E-03 -8.224746E+01 -1.826271E+00
       251 -8.597281E-01  3.778169E+01 -2.856300E-03
       252  1.524772E-03  5.483206E+01 -4.895212E-03
       253  8.587969E-01  3.778145E+01 -5.203870E-03
       254 -7.685458E-04 -8.403317E+01  1.840924E+00
       255  5.598202E-07 -1.657042E+00 -1.034365E-05
       256  1.466084E-07 -3.564098E+00  9.563375E-01
       257  1.232855E-06 -3.564108E+00 -4.530130E-06
       258 -1.133959E-07  4.200665E+00  4.068763E-06
       259 -1.179467E-06 -3.564108E+00 -4.593606E-06
       260  2.845987E-07 -3.564121E+00 -9.563395E-01
       261 -7.907465E-08 -3.180179E+00 -1.586694E-06

 displacements (vx,vy,vz) for set NALL and time  0.4000000E-01

         5  0.000000E+00  0.000000E+00  0.000000E+00
         6  0.000000E+00  0.000000E+00  0.000000E+00
         7  0.000000E+00  0.000000E+00  0.000000E+00
         8  0.000000E+00  0.000000E+00  0.000000E+00
        21  0.000000E+00  0.000000E+00  0.000000E+00
        22  0.000000E+00  0.000000E+00  0.000000E+00
        23  0.000000E+00  0.000000E+00  0.000000E+00
        24  0.000000E+00  0.000000E+00  0.000000E+00
        25  0.000000E+00  0.000000E+00  0.000000E+00
        26  0.000000E+00  0.000000E+00  0.000000E+00
        27  0.000000E+00  0.000000E+00  0.000000E+00
        28  0.000000E+00  0.000000E+00  0.000000E+00
        29  0.000000E+00  0.000000E+00  0.000000E+00
        30  0.000000E+00  0.000000E+00  0.000000E+00
        31  0.000000E+00  0.000000E+00  0.000000E+00
        32  0.000000E+00  0.000000E+00  0.000000E+00
        44 -9.443522E-05  9.840852E-04 -1.438107E-04
        45 -2.241656E-05  7.662939E-04 -2.319713E-04
        46  2.577918E-05  5.627511E-04 -2.656474E-04
        47 -3.296027E-05  2.281437E-04 -1.746549E-04
        48  3.297404E-05  2.281563E-04 -1.747182E-04
        49 -2.575107E-05  5.627645E-04 -2.657616E-04
        50  2.264376E-05  7.662929E-04 -2.320056E-04
        51  9.492845E-05  9.837384E-04 -1.438501E-04
        74  9.507142E-05  9.883401E-04  1.436999E-04
        75  2.182710E-05  7.684705E-04  2.316561E-04
        76 -2.580877E-05  5.619044E-04  2.655543E-04
        77  3.309987E-05  2.275046E-04  1.747375E-04
        89 -9.450861E-05  9.887597E-04  1.436806E-04
        90 -2.163388E-05  7.684609E-04  2.316387E-04
        91  2.585453E-05  5.618911E-04  2.654458E-04
        92 -3.309038E-05  2.274917E-04  1.746821E-04
        98  0.000000E+00  0.000000E+00  0.000000E+00
        99  0.000000E+00  0.000000E+00  0.000000E+00
       100  0.000000E+00  0.000000E+00  0.000000E+00
       101  0.000000E+00  0.000000E+00  0.000000E+00
       102  0.000000E+00  0.000000E+00  0.000000E+00
       124  5.541314E-06  9.119343E-04 -1.356461E-04
       125  2.565297E-07  1.082886E-03 -1.420164E-04
       126 -5.067968E-06  9.120177E-04 -1.356094E-04
       127  7.274556E-08  7.986416E-04 -2.565975E-04
       128 -2.557594E-06  5.891867E-04 -2.849669E-04
       129  5.112597E-08  5.483008E-04 -2.905157E-04
       130  2.628983E-06  5.891983E-04 -2.849169E-04
       131 -7.407194E-10  2.314125E-04 -1.697856E-04
       153  7.764142E-05  1.175774E-03 -6.383967E-05
       154  1.553494E-06  1.045382E-03 -1.929517E-07
       155 -7.799841E-05  1.179962E-03  6.395887E-05
       156  9.921314E-07  8.657420E-04  2.766356E-07
       157 -1.545563E-05  4.882950E-04 -1.143899E-04
       158 -3.876442E-07  4.975367E-04  1.846134E-07
       159  1.573481E-05  4.874237E-04  1.144145E-04
       160 -2.797377E-07  1.891573E-04 -2.781237E-09
       182  2.896413E-06  9.093426E-04  1.354975E-04
       183  2.156562E-07  1.087499E-03  1.421960E-04
       184 -2.432043E-06  9.094816E-04  1.355409E-04
       185  9.192212E-08  8.001640E-04  2.563153E-04
       186 -1.969763E-06  5.897301E-04  2.849890E-04
       187  3.240973E-08  5.469254E-04  2.904417E-04
       188  2.032034E-06  5.897384E-04  2.849277E-04
       189  5.254609E-11  2.309678E-04  1.697433E-04
       211  7.834960E-05  1.180231E-03  6.374005E-05
       212 -1.270923E-06  1.045410E-03 -9.691917E-08
       213 -7.732980E-05  1.175564E-03 -6.405789E-05
       214 -8.616529E-07  8.657423E-04  1.909141E-07
       215 -1.564233E-05  4.874058E-04  1.143734E-04
       216  4.902887E-07  4.975320E-04  8.637896E-08
       217  1.554003E-05  4.883088E-04 -1.144379E-04
       218  2.978348E-07  1.891561E-04 -4.146266E-08
       250  1.337943E-07  1.175221E-03 -6.337089E-05
       251 -2.200090E-06  7.423166E-04  3.320202E-08