    1C
    1UUSER                                                              
    1UDATE              28.june.2018                                    
    1UTIME              12:54:16                                        
    1UHOST                                                              
    1UPGM               CalculiX                                        
    1UVERSION           Version 2.13                             
    1UCOMPILETIME       jue jun 14 00:40:39 CEST 2018                    
    1UDIR                                                               
    1UDBN                                                               
    1UMAT    1EL                                                        
    2C                            81                                     1
 -1         5 0.00000E+00 0.00000E+00 8.00000E+00
 -1         6 1.00000E+00 0.00000E+00 8.00000E+00
 -1         7 1.00000E+00 1.00000E+00 8.00000E+00
 -1         8 0.00000E+00 1.00000E+00 8.00000E+00
 -1        21 2.50000E-01 0.00000E+00 8.00000E+00
 -1        22 5.00000E-01 0.00000E+00 8.00000E+00
 -1        23 7.50000E-01 0.00000E+00 8.00000E+00
 -1        24 1.00000E+00 2.50000E-01 8.00000E+00
 -1        25 1.00000E+00 5.00000E-01 8.00000E+00
 -1        26 1.00000E+00 7.50000E-01 8.00000E+00
 -1        27 7.50000E-01 1.00000E+00 8.00000E+00
 -1        28 5.00000E-01 1.00000E+00 8.00000E+00
 -1        29 2.50000E-01 1.00000E+00 8.00000E+00
 -1        30 0.00000E+00 7.50000E-01 8.00000E+00
 -1        31 0.00000E+00 5.00000E-01 8.00000E+00
 -1        32 0.00000E+00 2.50000E-01 8.00000E+00
 -1        44 1.00000E+00 0.00000E+00 6.00000E+00
 -1        45 1.00000E+00 0.00000E+00 6.50000E+00
 -1        46 1.00000E+00 0.00000E+00 7.00000E+00
 -1        47 1.00000E+00 0.00000E+00 7.50000E+00
 -1        48 0.00000E+00 0.00000E+00 7.50000E+00
 -1        49 0.00000E+00 0.00000E+00 7.00000E+00
 -1        50 0.00000E+00 0.00000E+00 6.50000E+00
 -1        51 0.00000E+00 0.00000E+00 6.00000E+00
 -1        74 1.00000E+00 1.00000E+00 6.00000E+00
 -1        75 1.00000E+00 1.00000E+00 6.50000E+00
 -1        76 1.00000E+00 1.00000E+00 7.00000E+00
 -1        77 1.00000E+00 1.00000E+00 7.50000E+00
 -1        89 0.00000E+00 1.00000E+00 6.00000E+00
 -1        90 0.00000E+00 1.00000E+00 6.50000E+00
 -1        91 0.00000E+00 1.00000E+00 7.00000E+00
 -1        92 0.00000E+00 1.00000E+00 7.50000E+00
 -1        98 5.00000E-01 2.50000E-01 8.00000E+00
 -1        99 2.50000E-01 5.00000E-01 8.00000E+00
 -1       100 5.00000E-01 5.00000E-01 8.00000E+00
 -1       101 7.50000E-01 5.00000E-01 8.00000E+00
 -1       102 5.00000E-01 7.50000E-01 8.00000E+00
 -1       124 2.50000E-01 0.00000E+00 6.00000E+00
 -1       125 5.00000E-01 0.00000E+00 6.00000E+00
 -1       126 7.50000E-01 0.00000E+00 6.00000E+00
 -1       127 5.00000E-01 0.00000E+00 6.50000E+00
 -1       128 2.50000E-01 0.00000E+00 7.00000E+00
 -1       129 5.00000E-01 0.00000E+00 7.00000E+00
 -1       130 7.50000E-01 0.00000E+00 7.00000E+00
 -1       131 5.00000E-01 0.00000E+00 7.50000E+00
 -1       153 1.00000E+00 2.50000E-01 6.00000E+00
 -1       154 1.00000E+00 5.00000E-01 6.00000E+00
 -1       155 1.00000E+00 7.50000E-01 6.00000E+00
 -1       156 1.00000E+00 5.00000E-01 6.50000E+00
 -1       157 1.00000E+00 2.50000E-01 7.00000E+00
 -1       158 1.00000E+00 5.00000E-01 7.00000E+00
 -1       159 1.00000E+00 7.50000E-01 7.00000E+00
 -1       160 1.00000E+00 5.00000E-01 7.50000E+00
 -1       182 7.50000E-01 1.00000E+00 6.00000E+00
 -1       183 5.00000E-01 1.00000E+00 6.00000E+00
 -1       184 2.50000E-01 1.00000E+00 6.00000E+00
 -1       185 5.00000E-01 1.00000E+00 6.50000E+00
 -1       186 7.50000E-01 1.00000E+00 7.00000E+00
 -1       187 5.00000E-01 1.00000E+00 7.00000E+00
 -1       188 2.50000E-01 1.00000E+00 7.00000E+00
 -1       189 5.00000E-01 1.00000E+00 7.50000E+00
 -1       211 0.00000E+00 7.50000E-01 6.00000E+00
 -1       212 0.00000E+00 5.00000E-01 6.00000E+00
 -1       213 0.00000E+00 2.50000E-01 6.00000E+00
 -1       214 0.00000E+00 5.00000E-01 6.50000E+00
 -1       215 0.00000E+00 7.50000E-01 7.00000E+00
 -1       216 0.00000E+00 5.00000E-01 7.00000E+00
 -1       217 0.00000E+00 2.50000E-01 7.00000E+00
 -1       218 0.00000E+00 5.00000E-01 7.50000E+00
 -1       250 5.00000E-01 2.50000E-01 6.00000E+00
 -1       251 2.50000E-01 5.00000E-01 6.00000E+00
 -1       252 5.00000E-01 5.00000E-01 6.00000E+00
 -1       253 7.50000E-01 5.00000E-01 6.00000E+00
 -1       254 5.00000E-01 7.50000E-01 6.00000E+00
 -1       255 5.00000E-01 5.00000E-01 6.50000E+00
 -1       256 5.00000E-01 2.50000E-01 7.00000E+00
 -1       257 2.50000E-01 5.00000E-01 7.00000E+00
 -1       258 5.00000E-01 5.00000E-01 7.00000E+00
 -1       259 7.50000E-01 5.00000E-01 7.00000E+00
 -1       260 5.00000E-01 7.50000E-01 7.00000E+00
 -1       261 5.00000E-01 5.00000E-01 7.50000E+00
 -3
    3C                             8                                     1
 -1        25    4    0    1
 -2        51       125       252       212        49       129       258       216       124       250
 -2       251       213        50       127       255       214       128       256       257       217
 -1        26    4    0    1
 -2       125        44       154       252       129        46       158       258       126       153
 -2       253       250       127        45       156       255       130       157       259       256
 -1        27    4    0    1
 -2       212       252       183        89       216       258       187        91       251       254
 -2       184       211       214       255       185        90       257       260       188       215
 -1        28    4    0    1
 -2       252       154        74       183       258       158        76       187       253       155
 -2       182       254       255       156        75       185       259       159       186       260
 -1        29    4    0    1
 -2        49       129       258       216         5        22       100        31       128       256
 -2       257       217        48       131       261       218        21        98        99        32
 -1        30    4    0    1
 -2       129        46       158       258        22         6        25       100       130       157
 -2       259       256       131        47       160       261        23        24       101        98
 -1        31    4    0    1
 -2       216       258       187        91        31       100        28         8       257       260
 -2       188       215       218       261       189        92        99       102        29        30
 -1        32    4    0    1
 -2       258       158        76       187       100        25         7        28       259       159
 -2       186       260       261       160        77       189       101        26        27       102
 -3
    1PSTEP                         1           1           1          
  100CL  101 1.00000E-02          81                     1    1           1
 -4  DISP        4    1
 -5  D1          1    2    1    0
 -5  D2          1    2    2    0
 -5  D3          1    2    3    0
 -5  ALL         1    2    0    0    1ALL
 -1         5 0.00000E+00 0.00000E+00 0.00000E+00
 -1         6 0.00000E+00 0.00000E+00 0.00000E+00
 -1         7 0.00000E+00 0.00000E+00 0.00000E+00
 -1         8 0.00000E+00 0.00000E+00 0.00000E+00
 -1        21 0.00000E+00 0.00000E+00 0.00000E+00
 -1        22 0.00000E+00 0.00000E+00 0.00000E+00
 -1        23 0.00000E+00 0.00000E+00 0.00000E+00
 -1        24 0.00000E+00 0.00000E+00 0.00000E+00
 -1        25 0.00000E+00 0.00000E+00 0.00000E+00
 -1        26 0.00000E+00 0.00000E+00 0.00000E+00
 -1        27 0.00000E+00 0.00000E+00 0.00000E+00
 -1        28 0.00000E+00 0.00000E+00 0.00000E+00
 -1        29 0.00000E+00 0.00000E+00 0.00000E+00
 -1        30 0.00000E+00 0.00000E+00 0.00000E+00
 -1        31 0.00000E+00 0.00000E+00 0.00000E+00
 -1        32 0.00000E+00 0.00000E+00 0.00000E+00
 -1        44 1.55095E-04-2.02118E-03 2.88880E-04
 -1        45 4.23624E-05-1.55758E-03 4.71495E-04
 -1        46-4.82729E-05-1.13260E-03 5.44700E-04
 -1        47 6.91858E-05-4.53569E-04 3.50580E-04
 -1        48-6.91630E-05-4.53559E-04 3.50544E-04
 -1        49 4.83221E-05-1.13259E-03 5.44642E-04
 -1        50-4.21961E-05-1.55758E-03 4.71438E-04
 -1        51-1.54994E-04-2.02115E-03 2.88856E-04
 -1        74-1.30955E-04-2.10871E-03-2.93323E-04
 -1        75-1.94340E-05-1.59555E-03-4.71248E-04
 -1        76 3.37751E-05-1.11430E-03-5.44718E-04
 -1        77-7.62943E-05-4.39791E-04-3.51995E-04
 -1        89 1.31157E-04-2.10878E-03-2.93461E-04
 -1        90 1.95829E-05-1.59555E-03-4.71339E-04
 -1        91-3.37137E-05-1.11431E-03-5.44774E-04
 -1        92 7.63152E-05-4.39801E-04-3.52028E-04
 -1        98 0.00000E+00 0.00000E+00 0.00000E+00
 -1        99 0.00000E+00 0.00000E+00 0.00000E+00
 -1       100 0.00000E+00 0.00000E+00 0.00000E+00
 -1       101 0.00000E+00 0.00000E+00 0.00000E+00
 -1       102 0.00000E+00 0.00000E+00 0.00000E+00
 -1       124 8.96324E-06-1.83851E-03 2.72769E-04
 -1       125 1.15190E-07-2.20164E-03 2.86071E-04
 -1       126-8.79247E-06-1.83853E-03 2.72839E-04
 -1       127 5.58560E-08-1.61329E-03 5.24548E-04
 -1       128 2.73090E-06-1.19469E-03 5.77709E-04
 -1       129 4.48609E-08-1.10795E-03 5.86364E-04
 -1       130-2.66309E-06-1.19469E-03 5.77724E-04
 -1       131 6.75709E-09-4.65095E-04 3.43279E-04
 -1       153-1.25924E-04-2.36385E-03 1.27517E-04
 -1       154-1.11757E-05-2.02374E-03-1.94161E-06
 -1       155 1.26654E-04-2.38682E-03-1.31974E-04
 -1       156-1.10026E-05-1.74526E-03-6.02919E-06
 -1       157 2.46053E-05-9.78000E-04 2.32979E-04
 -1       158 8.22097E-06-1.00121E-03-2.70510E-06
 -1       159-2.20648E-05-9.75048E-04-2.34668E-04
 -1       160 3.71559E-06-3.86518E-04 4.85178E-07
 -1       182 5.95506E-06-1.80108E-03-2.76680E-04
 -1       183 1.26602E-07-2.27287E-03-2.88547E-04
 -1       184-5.72981E-06-1.80112E-03-2.76778E-04
 -1       185 5.70725E-08-1.63855E-03-5.22004E-04
 -1       186-5.08782E-07-1.21440E-03-5.80966E-04
 -1       187 4.02588E-08-1.11005E-03-5.88546E-04
 -1       188 5.78709E-07-1.21440E-03-5.80988E-04
 -1       189 6.86632E-09-4.63665E-04-3.44069E-04
 -1       211-1.26463E-04-2.38686E-03-1.32064E-04
 -1       212 1.13466E-05-2.02376E-03-2.00523E-06
 -1       213 1.26053E-04-2.36384E-03 1.27493E-04
 -1       214 1.11567E-05-1.74525E-03-6.09975E-06
 -1       215 2.21254E-05-9.75057E-04-2.34729E-04
 -1       216-8.16075E-06-1.00122E-03-2.76391E-06
 -1       217-2.45484E-05-9.77999E-04 2.32916E-04
 -1       218-3.68870E-06-3.86518E-04 4.53761E-07
 -1       250 1.22865E-07-2.39549E-03 1.25206E-04
 -1       251 2.85476E-06-1.51605E-03-9.77386E-07
 -1       252 1.26455E-07-1.91994E-03-1.42328E-06
 -1       253-2.64155E-06-1.51604E-03-9.15516E-07
 -1       254 1.31379E-07-2.42664E-03-1.32695E-04
 -1       255 6.16400E-08-1.69467E-03-3.00576E-06
 -1       256 4.32438E-08-9.76856E-04 2.55762E-04
 -1       257-3.76207E-06-1.12833E-03-1.16974E-06
 -1       258 4.10490E-08-1.02410E-03-1.41175E-06
 -1       259 3.83204E-06-1.12833E-03-1.14773E-06
 -1       260 4.00705E-08-9.78415E-04-2.57927E-04
 -1       261 9.27880E-09-4.34652E-04-1.69865E-07
 -3
    1PSTEP                         2           2           1          
  100CL  102 2.00000E-02          81                     1    2           1
 -4  DISP        4    1
 -5  D1          1    2    1    0
 -5  D2          1    2    2    0
 -5  D3          1    2    3    0
 -5  ALL         1    2    0    0    1ALL
 -1         5 0.00000E+00 0.00000E+00 0.00000E+00
 -1         6 0.00000E+00 0.00000E+00 0.00000E+00
 -1         7 0.00000E+00 0.00000E+00 0.00000E+00
 -1         8 0.00000E+00 0.00000E+00 0.00000E+00
 -1        21 0.00000E+00 0.00000E+00 0.00000E+00
 -1        22 0.00000E+00 0.00000E+00 0.00000E+00
 -1        23 0.00000E+00 0.00000E+00 0.00000E+00
 -1        24 0.00000E+00 0.00000E+00 0.00000E+00
 -1        25 0.00000E+00 0.00000E+00 0.00000E+00
 -1        26 0.00000E+00 0.00000E+00 0.00000E+00
 -1        27 0.00000E+00 0.00000E+00 0.00000E+00
 -1        28 0.00000E+00 0.00000E+00 0.00000E+00
 -1        29 0.00000E+00 0.00000E+00 0.00000E+00
 -1        30 0.00000E+00 0.00000E+00 0.00000E+00
 -1        31 0.00000E+00 0.00000E+00 0.00000E+00
 -1        32 0.00000E+00 0.00000E+00 0.00000E+00
 -1        44-1.51955E-04 1.60641E-03-2.33690E-04
 -1        45-3.56539E-05 1.24868E-03-3.76169E-04
 -1        46 4.18611E-05 9.13705E-04-4.32161E-04
 -1        47-5.39425E-05 3.69734E-04-2.83977E-04
 -1        48 5.39381E-05 3.69735E-04-2.83971E-04
 -1        49-4.18970E-05 9.13663E-04-4.32139E-04
 -1        50 3.55773E-05 1.24873E-03-3.76105E-04
 -1        51 1.51822E-04 1.60624E-03-2.33494E-04
 -1        74 1.53484E-04 1.60740E-03 2.33764E-04
 -1        75 3.61983E-05 1.24865E-03 3.76244E-04
 -1        76-4.20163E-05 9.13768E-04 4.32127E-04
 -1        77 5.38129E-05 3.69592E-04 2.84017E-04
 -1        89-1.53809E-04 1.60728E-03 2.33893E-04
 -1        90-3.62121E-05 1.24868E-03 3.76295E-04
 -1        91 4.19612E-05 9.13767E-04 4.32154E-04
 -1        92-5.38115E-05 3.69600E-04 2.84029E-04
 -1        98 0.00000E+00 0.00000E+00 0.00000E+00
 -1        99 0.00000E+00 0.00000E+00 0.00000E+00
 -1       100 0.00000E+00 0.00000E+00 0.00000E+00
 -1       101 0.00000E+00 0.00000E+00 0.00000E+00
 -1       102 0.00000E+00 0.00000E+00 0.00000E+00
 -1       124 2.70670E-06 1.47859E-03-2.20188E-04
 -1       125-6.06536E-08 1.76890E-03-2.30691E-04
 -1       126-2.82664E-06 1.47870E-03-2.20293E-04
 -1       127-2.55611E-08 1.30089E-03-4.17633E-04
 -1       128-3.04550E-06 9.58928E-04-4.63241E-04
 -1       129-2.32121E-08 8.89257E-04-4.72016E-04
 -1       130 3.00395E-06 9.58944E-04-4.63251E-04
 -1       131-2.35347E-09 3.75427E-04-2.75930E-04
 -1       153 1.24877E-04 1.91435E-03-1.03782E-04
 -1       154 9.37521E-07 1.69047E-03 1.50162E-07
 -1       155-1.26071E-04 1.91366E-03 1.03864E-04
 -1       156 4.19414E-07 1.40688E-03 7.20247E-08
 -1       157-2.48712E-05 7.92278E-04-1.85993E-04
 -1       158-4.44990E-07 8.08838E-04 6.96343E-08
 -1       159 2.49149E-05 7.92628E-04 1.86114E-04
 -1       160-1.67152E-07 3.08125E-04-3.19700E-08
 -1       182 4.69021E-06 1.47809E-03 2.20481E-04
 -1       183-4.43080E-08 1.77087E-03 2.30971E-04
 -1       184-4.88032E-06 1.47802E-03 2.20445E-04
 -1       185-5.26894E-08 1.30216E-03 4.17803E-04
 -1       186-3.36020E-06 9.59670E-04 4.63379E-04
 -1       187 1.11856E-08 8.89598E-04 4.72274E-04
 -1       188 3.34173E-06 9.59670E-04 4.63415E-04
 -1       189-1.45905E-09 3.75392E-04 2.76009E-04
 -1       211 1.25840E-04 1.91362E-03 1.04013E-04
 -1       212-1.04159E-06 1.69051E-03 1.67876E-07
 -1       213-1.24973E-04 1.91430E-03-1.03761E-04
 -1       214-4.88385E-07 1.40684E-03 1.14949E-07
 -1       215-2.49528E-05 7.92649E-04 1.86127E-04
 -1       216 4.22062E-07 8.08881E-04 1.00940E-07
 -1       217 2.48370E-05 7.92276E-04-1.85946E-04
 -1       218 1.57745E-07 3.08125E-04-2.19497E-08
 -1       250-6.37783E-08 1.91005E-03-1.02747E-04
 -1       251 2.79505E-07 1.20859E-03 1.07684E-07
 -1       252-5.02051E-08 1.54340E-03-9.96653E-08
 -1       253-3.85121E-07 1.20856E-03 1.00871E-07
 -1       254-4.27538E-08 1.91203E-03 1.03088E-04
 -1       255-3.46876E-08 1.37368E-03 1.50562E-07
 -1       256-1.48798E-08 7.83648E-04-2.07153E-04
 -1       257 4.57315E-08 9.13785E-04 6.71155E-08
 -1       258-1.01329E-08 8.13057E-04 8.79444E-08
 -1       259-6.56855E-08 9.13766E-04 5.14505E-08
 -1       260-7.78249E-10 7.83583E-04 2.07248E-04
 -1       261-3.44359E-09 3.48516E-04 1.51666E-08
 -3
    1PSTEP                         3           3           1          
  100CL  103 3.00000E-02          81                     1    3           1
 -4  DISP        4    1
 -5  D1          1    2    1    0
 -5  D2          1    2    2    0
 -5  D3          1    2    3    0
 -5  ALL         1    2    0    0    1ALL
 -1         5 0.00000E+00 0.00000E+00 0.00000E+00
 -1         6 0.00000E+00 0.00000E+00 0.00000E+00
 -1         7 0.00000E+00 0.00000E+00 0.00000E+00
 -1         8 0.00000E+00 0.00000E+00 0.00000E+00
 -1        21 0.00000E+00 0.00000E+00 0.00000E+00
 -1        22 0.00000E+00 0.00000E+00 0.00000E+00
 -1        23 0.00000E+00 0.00000E+00 0.00000E+00
 -1        24 0.00000E+00 0.00000E+00 0.00000E+00
 -1        25 0.00000E+00 0.00000E+00 0.00000E+00
 -1        26 0.00000E+00 0.00000E+00 0.00000E+00
 -1        27 0.00000E+00 0.00000E+00 0.00000E+00
 -1        28 0.00000E+00 0.00000E+00 0.00000E+00
 -1        29 0.00000E+00 0.00000E+00 0.00000E+00
 -1        30 0.00000E+00 0.00000E+00 0.00000E+00
 -1        31 0.00000E+00 0.00000E+00 0.00000E+00
 -1        32 0.00000E+00 0.00000E+00 0.00000E+00
 -1        44 1.02901E-04-1.28692E-03 1.84834E-04
 -1        45 2.00272E-05-9.95398E-04 2.97969E-04
 -1        46-2.94635E-05-7.20716E-04 3.42405E-04
 -1        47 4.49940E-05-2.90566E-04 2.24520E-04
 -1        48-4.50334E-05-2.90584E-04 2.24594E-04
 -1        49 2.93655E-05-7.20755E-04 3.42540E-04
 -1        50-2.03749E-05-9.95365E-04 2.98135E-04
 -1        51-1.03405E-04-1.28695E-03 1.85123E-04
 -1        74-1.14921E-04-1.27273E-03-1.85064E-04
 -1        75-2.73181E-05-9.87773E-04-2.98251E-04
 -1        76 3.13597E-05-7.23189E-04-3.42660E-04
 -1        77-4.31929E-05-2.92688E-04-2.24590E-04
 -1        89 1.14464E-04-1.27311E-03-1.85155E-04
 -1        90 2.70004E-05-9.87721E-04-2.98193E-04
 -1        91-3.14508E-05-7.23204E-04-3.42516E-04
 -1        92 4.31556E-05-2.92661E-04-2.24505E-04
 -1        98 0.00000E+00 0.00000E+00 0.00000E+00
 -1        99 0.00000E+00 0.00000E+00 0.00000E+00
 -1       100 0.00000E+00 0.00000E+00 0.00000E+00
 -1       101 0.00000E+00 0.00000E+00 0.00000E+00
 -1       102 0.00000E+00 0.00000E+00 0.00000E+00
 -1       124 7.70080E-06-1.16643E-03 1.74097E-04
 -1       125-3.17818E-07-1.40273E-03 1.82896E-04
 -1       126-8.24192E-06-1.16634E-03 1.73878E-04
 -1       127-1.09996E-07-1.02912E-03 3.29050E-04
 -1       128 1.31419E-07-7.60469E-04 3.66804E-04
 -1       129-9.38889E-08-7.03540E-04 3.72724E-04
 -1       130-2.78330E-07-7.60465E-04 3.66753E-04
 -1       131-1.05444E-08-2.97696E-04 2.18608E-04
 -1       153-9.16148E-05-1.52395E-03 8.18931E-05
 -1       154-1.60150E-06-1.33273E-03-1.29533E-07
 -1       155 9.47805E-05-1.50583E-03-8.20808E-05
 -1       156 4.69015E-07-1.11452E-03 6.37998E-07
 -1       157 1.79359E-05-6.24529E-04 1.47255E-04
 -1       158 3.26745E-07-6.39176E-04 2.57114E-07
 -1       159-1.87743E-05-6.28251E-04-1.47479E-04
 -1       160-2.44977E-07-2.44269E-04-2.97249E-08
 -1       182-9.27486E-06-1.17159E-03-1.74075E-04
 -1       183-2.58888E-07-1.39597E-03-1.82606E-04
 -1       184 8.80639E-06-1.17175E-03-1.74098E-04
 -1       185-1.40853E-07-1.02854E-03-3.30434E-04
 -1       186 3.69300E-06-7.59379E-04-3.66696E-04
 -1       187-6.45047E-08-7.05587E-04-3.73260E-04
 -1       188-3.80739E-06-7.59392E-04-3.66634E-04
 -1       189-9.57243E-09-2.97816E-04-2.18653E-04
 -1       211-9.51715E-05-1.50604E-03-8.19034E-05
 -1       212 1.22163E-06-1.33274E-03-8.37561E-08
 -1       213 9.12102E-05-1.52394E-03 8.21097E-05
 -1       214-7.62364E-07-1.11454E-03 7.81983E-07
 -1       215 1.86522E-05-6.28240E-04-1.47390E-04
 -1       216-4.60408E-07-6.39147E-04 3.90356E-07
 -1       217-1.80610E-05-6.24540E-04 1.47379E-04
 -1       218 1.96010E-07-2.44270E-04 3.96810E-08
 -1       250-2.76894E-07-1.50879E-03 8.16026E-05
 -1       251-6.98322E-06-9.56113E-04-3.59868E-08
 -1       252-1.94070E-07-1.22776E-03-7.33071E-08
 -1       253 6.58865E-06-9.56099E-04-8.93779E-08
 -1       254-2.24260E-07-1.52087E-03-8.14950E-05
 -1       255-1.30276E-07-1.08774E-03 2.33937E-08
 -1       256-7.89541E-08-6.21997E-04 1.63751E-04
 -1       257 1.38938E-06-7.23228E-04-1.25614E-08
 -1       258-7.06837E-08-6.43921E-04 1.50280E-09
 -1       259-1.52122E-06-7.23245E-04-7.20275E-08
 -1       260-7.03455E-08-6.19600E-04-1.63686E-04
 -1       261-2.01584E-08-2.75556E-04 2.17301E-08
 -3
    1PSTEP                         4           4           1          
  100CL  104 4.00000E-02          81                     1    4           1
 -4  DISP        4    1
 -5  D1          1    2    1    0
 -5  D2          1    2    2    0
 -5  D3          1    2    3    0
 -5  ALL         1    2    0    0    1ALL
 -1         5 0.00000E+00 0.00000E+00 0.00000E+00
 -1         6 0.00000E+00 0.00000E+00 0.00000E+00
 -1         7 0.00000E+00 0.00000E+00 0.00000E+00
 -1         8 0.00000E+00 0.00000E+00 0.00000E+00
 -1        21 0.00000E+00 0.00000E+00 0.00000E+00
 -1        22 0.00000E+00 0.00000E+00 0.00000E+00
 -1        23 0.00000E+00 0.00000E+00 0.00000E+00
 -1        24 0.00000E+00 0.00000E+00 0.00000E+00
 -1        25 0.00000E+00 0.00000E+00 0.00000E+00
 -1        26 0.00000E+00 0.00000E+00 0.00000E+00
 -1        27 0.00000E+00 0.00000E+00 0.00000E+00
 -1        28 0.00000E+00 0.00000E+00 0.00000E+00
 -1        29 0.00000E+00 0.00000E+00 0.00000E+00
 -1        30 0.00000E+00 0.00000E+00 0.00000E+00
 -1        31 0.00000E+00 0.00000E+00 0.00000E+00
 -1        32 0.00000E+00 0.00000E+00 0.00000E+00
 -1        44-9.44352E-05 9.84085E-04-1.43811E-04
 -1        45-2.24166E-05 7.66294E-04-2.31971E-04
 -1        46 2.57792E-05 5.62751E-04-2.65647E-04
 -1        47-3.29603E-05 2.28144E-04-1.74655E-04
 -1        48 3.29740E-05 2.28156E-04-1.74718E-04
 -1        49-2.57511E-05 5.62765E-04-2.65762E-04
 -1        50 2.26438E-05 7.66293E-04-2.32006E-04
 -1        51 9.49284E-05 9.83738E-04-1.43850E-04
 -1        74 9.50714E-05 9.88340E-04 1.43700E-04
 -1        75 2.18271E-05 7.68471E-04 2.31656E-04
 -1        76-2.58088E-05 5.61904E-04 2.65554E-04
 -1        77 3.30999E-05 2.27505E-04 1.74737E-04
 -1        89-9.45086E-05 9.88760E-04 1.43681E-04
 -1        90-2.16339E-05 7.68461E-04 2.31639E-04
 -1        91 2.58545E-05 5.61891E-04 2.65446E-04
 -1        92-3.30904E-05 2.27492E-04 1.74682E-04
 -1        98 0.00000E+00 0.00000E+00 0.00000E+00
 -1        99 0.00000E+00 0.00000E+00 0.00000E+00
 -1       100 0.00000E+00 0.00000E+00 0.00000E+00
 -1       101 0.00000E+00 0.00000E+00 0.00000E+00
 -1       102 0.00000E+00 0.00000E+00 0.00000E+00
 -1       124 5.54131E-06 9.11934E-04-1.35646E-04
 -1       125 2.56530E-07 1.08289E-03-1.42016E-04
 -1       126-5.06797E-06 9.12018E-04-1.35609E-04
 -1       127 7.27456E-08 7.98642E-04-2.56598E-04
 -1       128-2.55759E-06 5.89187E-04-2.84967E-04
 -1       129 5.11260E-08 5.48301E-04-2.90516E-04
 -1       130 2.62898E-06 5.89198E-04-2.84917E-04
 -1       131-7.40719E-10 2.31413E-04-1.69786E-04
 -1       153 7.76414E-05 1.17577E-03-6.38397E-05
 -1       154 1.55349E-06 1.04538E-03-1.92952E-07
 -1       155-7.79984E-05 1.17996E-03 6.39589E-05
 -1       156 9.92131E-07 8.65742E-04 2.76636E-07
 -1       157-1.54556E-05 4.88295E-04-1.14390E-04
 -1       158-3.87644E-07 4.97537E-04 1.84613E-07
 -1       159 1.57348E-05 4.87424E-04 1.14415E-04
 -1       160-2.79738E-07 1.89157E-04-2.78124E-09
 -1       182 2.89641E-06 9.09343E-04 1.35498E-04
 -1       183 2.15656E-07 1.08750E-03 1.42196E-04
 -1       184-2.43204E-06 9.09482E-04 1.35541E-04
 -1       185 9.19221E-08 8.00164E-04 2.56315E-04
 -1       186-1.96976E-06 5.89730E-04 2.84989E-04
 -1       187 3.24097E-08 5.46925E-04 2.90442E-04
 -1       188 2.03203E-06 5.89738E-04 2.84928E-04
 -1       189 5.25461E-11 2.30968E-04 1.69743E-04
 -1       211 7.83496E-05 1.18023E-03 6.37400E-05
 -1       212-1.27092E-06 1.04541E-03-9.69192E-08
 -1       213-7.73298E-05 1.17556E-03-6.40579E-05
 -1       214-8.61653E-07 8.65742E-04 1.90914E-07
 -1       215-1.56423E-05 4.87406E-04 1.14373E-04
 -1       216 4.90289E-07 4.97532E-04 8.63790E-08
 -1       217 1.55400E-05 4.88309E-04-1.14438E-04
 -1       218 2.97835E-07 1.89156E-04-4.14627E-08
 -1       250 1.33794E-07 1.17522E-03-6.33709E-05
 -1       251-2.20009E-06 7.42317E-04 3.32020E-08
 -1       252-1.18219E-09 9.49877E-04-6.02627E-08
 -1       253 2.37475E-06 7.42307E-04-6.56282E-08
 -1       254 1.07166E-07 1.17375E-03 6.34290E-05
 -1       255 9.38689E-08 8.46410E-04 6.93122E-09
 -1       256 3.15144E-08 4.81493E-04-1.27460E-04
 -1       257 5.96246E-07 5.62473E-04-4.54491E-08
 -1       258 1.12452E-08 4.98887E-04 6.17275E-09
 -1       259-5.46135E-07 5.62474E-04 1.51688E-08
 -1       260 2.36114E-08 4.81649E-04 1.27452E-04
 -1       261 1.45644E-08 2.14072E-04 4.18124E-08
 -3
    1PSTEP                         5           5           1          
  100CL  105 5.00000E-02          81                     1    5           1
 -4  DISP        4    1
 -5  D1          1    2    1    0
 -5  D2          1    2    2    0
 -5  D3          1    2    3    0
 -5  ALL         1    2    0    0    1ALL
 -1         5 0.00000E+00 0.00000E+00 0.00000E+00
 -1         6 0.00000E+00 0.00000E+00 0.00000E+00
 -1         7 0.00000E+00 0.00000E+00 0.00000E+00
 -1         8 0.00000E+00 0.00000E+00 0.00000E+00
 -1        21 0.00000E+00 0.00000E+00 0.00000E+00
 -1        22 0.00000E+00 0.00000E+00 0.00000E+00
 -1        23 0.00000E+00 0.00000E+00 0.00000E+00
 -1        24 0.00000E+00 0.00000E+00 0.00000E+00
 -1        25 0.00000E+00 0.00000E+00 0.00000E+00
 -1        26 0.00000E+00 0.00000E+00 0.00000E+00
 -1        27 0.00000E+00 0.00000E+00 0.00000E+00
 -1        28 0.00000E+00 0.00000E+00 0.00000E+00
 -1        29 0.00000E+00 0.00000E+00 0.00000E+00
 -1        30 0.00000E+00 0.00000E+00 0.00000E+00
 -1        31 0.00000E+00 0.00000E+00 0.00000E+00
 -1        32 0.00000E+00 0.00000E+00 0.00000E+00
 -1        44 7.20474E-05-7.43417E-04 1.08465E-04
 -1        45 1.69948E-05-5.78611E-04 1.74624E-04
 -1        46-1.98993E-05-4.24602E-04 2.00310E-04
 -1        47 2.48077E-05-1.71998E-04 1.31809E-04
 -1        48-2.49046E-05-1.71862E-04 1.31837E-04
 -1        49 1.97776E-05-4.24401E-04 2.00272E-04
 -1        50-1.66926E-05-5.78925E-04 1.74487E-04
 -1        51-7.09564E-05-7.44377E-04 1.08492E-04
 -1        74-7.23468E-05-7.44570E-04-1.08379E-04
 -1        75-1.71076E-05-5.78568E-04-1.74513E-04
 -1        76 1.97371E-05-4.24325E-04-2.00197E-04
 -1        77-2.47915E-05-1.71910E-04-1.31838E-04
 -1        89 7.28305E-05-7.43993E-04-1.08391E-04
 -1        90 1.73476E-05-5.78494E-04-1.74596E-04
 -1        91-1.97801E-05-4.24435E-04-2.00334E-04
 -1        92 2.46968E-05-1.71944E-04-1.31806E-04
 -1        98 0.00000E+00 0.00000E+00 0.00000E+00
 -1        99 0.00000E+00 0.00000E+00 0.00000E+00
 -1       100 0.00000E+00 0.00000E+00 0.00000E+00
 -1       101 0.00000E+00 0.00000E+00 0.00000E+00
 -1       102 0.00000E+00 0.00000E+00 0.00000E+00
 -1       124-5.73173E-07-6.86313E-04 1.02206E-04
 -1       125-1.98143E-07-8.19895E-04 1.07120E-04
 -1       126 7.55337E-07-6.86618E-04 1.02117E-04
 -1       127 5.51864E-08-6.03584E-04 1.93596E-04
 -1       128 1.30818E-06-4.44850E-04 2.14834E-04
 -1       129-5.93917E-08-4.12583E-04 2.18979E-04
 -1       130-1.39269E-06-4.44766E-04 2.14870E-04
 -1       131 2.89874E-08-1.74306E-04 1.28018E-04
 -1       153-5.88067E-05-8.89590E-04 4.81353E-05
 -1       154-6.67483E-07-7.86323E-04-6.42416E-08
 -1       155 5.92492E-05-8.87770E-04-4.81587E-05
 -1       156-2.48179E-07-6.52357E-04 3.12486E-09
 -1       157 1.17307E-05-3.67916E-04 8.62243E-05
 -1       158 3.09950E-07-3.75880E-04 1.06695E-10
 -1       159-1.17520E-05-3.68335E-04-8.62041E-05
 -1       160 8.49911E-08-1.43034E-04 3.65793E-08
 -1       182-3.66976E-06-6.85968E-04-1.02240E-04
 -1       183-6.14436E-07-8.20339E-04-1.07070E-04
 -1       184 3.15606E-06-6.86462E-04-1.02156E-04
 -1       185 3.89099E-08-6.04120E-04-1.93493E-04
 -1       186 1.81747E-06-4.44947E-04-2.14819E-04
 -1       187-3.84337E-08-4.12390E-04-2.19061E-04
 -1       188-1.84422E-06-4.44819E-04-2.14899E-04
 -1       189 3.47261E-08-1.74154E-04-1.28036E-04
 -1       211-5.91212E-05-8.87524E-04-4.81469E-05
 -1       212 6.83569E-07-7.85814E-04-1.31026E-07
 -1       213 5.85475E-05-8.89356E-04 4.81081E-05
 -1       214 2.65029E-07-6.52333E-04 2.07839E-08
 -1       215 1.17975E-05-3.68333E-04-8.62689E-05
 -1       216-2.45851E-07-3.75897E-04 4.72756E-09
 -1       217-1.15675E-05-3.67932E-04 8.62105E-05
 -1       218-4.36047E-08-1.43049E-04-1.80036E-08
 -1       250 2.57545E-08-8.83518E-04 4.76623E-05
 -1       251-6.09227E-07-5.60848E-04 1.18329E-09
 -1       252 2.54937E-07-7.14715E-04 1.27617E-08
 -1       253 1.12510E-06-5.60698E-04 1.48880E-07
 -1       254 1.17095E-07-8.85621E-04-4.77978E-05
 -1       255-3.16541E-08-6.37657E-04-6.99744E-08
 -1       256 2.26311E-08-3.63811E-04 9.61791E-05
 -1       257 1.72300E-07-4.24070E-04-3.69258E-10
 -1       258 1.01561E-07-3.76898E-04 9.86734E-09
 -1       259-9.72653E-08-4.24153E-04-3.88281E-08
 -1       260-3.44919E-08-3.63302E-04-9.61375E-05
 -1       261-2.82600E-09-1.61767E-04-7.65678E-09
 -3
    1PSTEP                         6           6           1          
  100CL  106 6.00000E-02          81                     1    6           1
 -4  DISP        4    1
 -5  D1          1    2    1    0
 -5  D2          1    2    2    0
 -5  D3          1    2    3    0
 -5  ALL         1    2    0    0    1ALL
 -1         5 0.00000E+00 0.00000E+00 0.00000E+00
 -1         6 0.00000E+00 0.00000E+00 0.00000E+00
 -1         7 0.00000E+00 0.00000E+00 0.00000E+00
 -1         8 0.00000E+00 0.00000E+00 0.00000E+00
 -1        21 0.00000E+00 0.00000E+00 0.00000E+00
 -1        22 0.00000E+00 0.00000E+00 0.00000E+00
 -1        23 0.00000E+00 0.00000E+00 0.00000E+00
 -1        24 0.00000E+00 0.00000E+00 0.00000E+00
 -1        25 0.00000E+00 0.00000E+00 0.00000E+00
 -1        26 0.00000E+00 0.00000E+00 0.00000E+00
 -1        27 0.00000E+00 0.00000E+00 0.00000E+00
 -1        28 0.00000E+00 0.00000E+00 0.00000E+00
 -1        29 0.00000E+00 0.00000E+00 0.00000E+00
 -1        30 0.00000E+00 0.00000E+00 0.00000E+00
 -1        31 0.00000E+00 0.00000E+00 0.00000E+00
 -1        32 0.00000E+00 0.00000E+00 0.00000E+00
 -1        44-5.16482E-05 5.40662E-04-7.88226E-05
 -1        45-1.19914E-05 4.21069E-04-1.27002E-04
 -1        46 1.43403E-05 3.07810E-04-1.45817E-04
 -1        47-1.79623E-05 1.24458E-04-9.56322E-05