    1C
    1UUSER                                                              
    1UDATE              12.july.2018                                    
    1UTIME              16:54:27                                        
    1UHOST                                                              
    1UPGM               CalculiX                                        
    1UVERSION           Version 2.13                             
    1UCOMPILETIME       jue jun 14 00:40:39 CEST 2018                    
    1UDIR                                                               
    1UDBN                                                               
    1UMAT    1EL                                                        
    2C                           201                                     1
 -1         1 0.00000E+00 0.00000E+00 0.00000E+00
 -1         2 1.00000E+00 0.00000E+00 0.00000E+00
 -1         3 1.00000E+00 1.00000E+00 0.00000E+00
 -1         4 0.00000E+00 1.00000E+00 0.00000E+00
 -1         9 2.50000E-01 0.00000E+00 0.00000E+00
 -1        10 5.00000E-01 0.00000E+00 0.00000E+00
 -1        11 7.50000E-01 0.00000E+00 0.00000E+00
 -1        12 1.00000E+00 2.50000E-01 0.00000E+00
 -1        13 1.00000E+00 5.00000E-01 0.00000E+00
 -1        14 1.00000E+00 7.50000E-01 0.00000E+00
 -1        15 7.50000E-01 1.00000E+00 0.00000E+00
 -1        16 5.00000E-01 1.00000E+00 0.00000E+00
 -1        17 2.50000E-01 1.00000E+00 0.00000E+00
 -1        18 0.00000E+00 7.50000E-01 0.00000E+00
 -1        19 0.00000E+00 5.00000E-01 0.00000E+00
 -1        20 0.00000E+00 2.50000E-01 0.00000E+00
 -1        33 1.00000E+00 0.00000E+00 5.00000E-01
 -1        34 1.00000E+00 0.00000E+00 1.00000E+00
 -1        35 1.00000E+00 0.00000E+00 1.50000E+00
 -1        36 1.00000E+00 0.00000E+00 2.00000E+00
 -1        37 1.00000E+00 0.00000E+00 2.50000E+00
 -1        38 1.00000E+00 0.00000E+00 3.00000E+00
 -1        39 1.00000E+00 0.00000E+00 3.50000E+00
 -1        40 1.00000E+00 0.00000E+00 4.00000E+00
 -1        41 1.00000E+00 0.00000E+00 4.50000E+00
 -1        42 1.00000E+00 0.00000E+00 5.00000E+00
 -1        43 1.00000E+00 0.00000E+00 5.50000E+00
 -1        44 1.00000E+00 0.00000E+00 6.00000E+00
 -1        51 0.00000E+00 0.00000E+00 6.00000E+00
 -1        52 0.00000E+00 0.00000E+00 5.50000E+00
 -1        53 0.00000E+00 0.00000E+00 5.00000E+00
 -1        54 0.00000E+00 0.00000E+00 4.50000E+00
 -1        55 0.00000E+00 0.00000E+00 4.00000E+00
 -1        56 0.00000E+00 0.00000E+00 3.50000E+00
 -1        57 0.00000E+00 0.00000E+00 3.00000E+00
 -1        58 0.00000E+00 0.00000E+00 2.50000E+00
 -1        59 0.00000E+00 0.00000E+00 2.00000E+00
 -1        60 0.00000E+00 0.00000E+00 1.50000E+00
 -1        61 0.00000E+00 0.00000E+00 1.00000E+00
 -1        62 0.00000E+00 0.00000E+00 5.00000E-01
 -1        63 1.00000E+00 1.00000E+00 5.00000E-01
 -1        64 1.00000E+00 1.00000E+00 1.00000E+00
 -1        65 1.00000E+00 1.00000E+00 1.50000E+00
 -1        66 1.00000E+00 1.00000E+00 2.00000E+00
 -1        67 1.00000E+00 1.00000E+00 2.50000E+00
 -1        68 1.00000E+00 1.00000E+00 3.00000E+00
 -1        69 1.00000E+00 1.00000E+00 3.50000E+00
 -1        70 1.00000E+00 1.00000E+00 4.00000E+00
 -1        71 1.00000E+00 1.00000E+00 4.50000E+00
 -1        72 1.00000E+00 1.00000E+00 5.00000E+00
 -1        73 1.00000E+00 1.00000E+00 5.50000E+00
 -1        74 1.00000E+00 1.00000E+00 6.00000E+00
 -1        78 0.00000E+00 1.00000E+00 5.00000E-01
 -1        79 0.00000E+00 1.00000E+00 1.00000E+00
 -1        80 0.00000E+00 1.00000E+00 1.50000E+00
 -1        81 0.00000E+00 1.00000E+00 2.00000E+00
 -1        82 0.00000E+00 1.00000E+00 2.50000E+00
 -1        83 0.00000E+00 1.00000E+00 3.00000E+00
 -1        84 0.00000E+00 1.00000E+00 3.50000E+00
 -1        85 0.00000E+00 1.00000E+00 4.00000E+00
 -1        86 0.00000E+00 1.00000E+00 4.50000E+00
 -1        87 0.00000E+00 1.00000E+00 5.00000E+00
 -1        88 0.00000E+00 1.00000E+00 5.50000E+00
 -1        89 0.00000E+00 1.00000E+00 6.00000E+00
 -1        93 5.00000E-01 2.50000E-01 0.00000E+00
 -1        94 2.50000E-01 5.00000E-01 0.00000E+00
 -1        95 5.00000E-01 5.00000E-01 0.00000E+00
 -1        96 7.50000E-01 5.00000E-01 0.00000E+00
 -1        97 5.00000E-01 7.50000E-01 0.00000E+00
 -1       103 5.00000E-01 0.00000E+00 5.00000E-01
 -1       104 2.50000E-01 0.00000E+00 1.00000E+00
 -1       105 5.00000E-01 0.00000E+00 1.00000E+00
 -1       106 7.50000E-01 0.00000E+00 1.00000E+00
 -1       107 5.00000E-01 0.00000E+00 1.50000E+00
 -1       108 2.50000E-01 0.00000E+00 2.00000E+00
 -1       109 5.00000E-01 0.00000E+00 2.00000E+00
 -1       110 7.50000E-01 0.00000E+00 2.00000E+00
 -1       111 5.00000E-01 0.00000E+00 2.50000E+00
 -1       112 2.50000E-01 0.00000E+00 3.00000E+00
 -1       113 5.00000E-01 0.00000E+00 3.00000E+00
 -1       114 7.50000E-01 0.00000E+00 3.00000E+00
 -1       115 5.00000E-01 0.00000E+00 3.50000E+00
 -1       116 2.50000E-01 0.00000E+00 4.00000E+00
 -1       117 5.00000E-01 0.00000E+00 4.00000E+00
 -1       118 7.50000E-01 0.00000E+00 4.00000E+00
 -1       119 5.00000E-01 0.00000E+00 4.50000E+00
 -1       120 2.50000E-01 0.00000E+00 5.00000E+00
 -1       121 5.00000E-01 0.00000E+00 5.00000E+00
 -1       122 7.50000E-01 0.00000E+00 5.00000E+00
 -1       123 5.00000E-01 0.00000E+00 5.50000E+00
 -1       124 2.50000E-01 0.00000E+00 6.00000E+00
 -1       125 5.00000E-01 0.00000E+00 6.00000E+00
 -1       126 7.50000E-01 0.00000E+00 6.00000E+00
 -1       132 1.00000E+00 5.00000E-01 5.00000E-01
 -1       133 1.00000E+00 2.50000E-01 1.00000E+00
 -1       134 1.00000E+00 5.00000E-01 1.00000E+00
 -1       135 1.00000E+00 7.50000E-01 1.00000E+00
 -1       136 1.00000E+00 5.00000E-01 1.50000E+00
 -1       137 1.00000E+00 2.50000E-01 2.00000E+00
 -1       138 1.00000E+00 5.00000E-01 2.00000E+00
 -1       139 1.00000E+00 7.50000E-01 2.00000E+00
 -1       140 1.00000E+00 5.00000E-01 2.50000E+00
 -1       141 1.00000E+00 2.50000E-01 3.00000E+00
 -1       142 1.00000E+00 5.00000E-01 3.00000E+00
 -1       143 1.00000E+00 7.50000E-01 3.00000E+00
 -1       144 1.00000E+00 5.00000E-01 3.50000E+00
 -1       145 1.00000E+00 2.50000E-01 4.00000E+00
 -1       146 1.00000E+00 5.00000E-01 4.00000E+00
 -1       147 1.00000E+00 7.50000E-01 4.00000E+00
 -1       148 1.00000E+00 5.00000E-01 4.50000E+00
 -1       149 1.00000E+00 2.50000E-01 5.00000E+00
 -1       150 1.00000E+00 5.00000E-01 5.00000E+00
 -1       151 1.00000E+00 7.50000E-01 5.00000E+00
 -1       152 1.00000E+00 5.00000E-01 5.50000E+00
 -1       153 1.00000E+00 2.50000E-01 6.00000E+00
 -1       154 1.00000E+00 5.00000E-01 6.00000E+00
 -1       155 1.00000E+00 7.50000E-01 6.00000E+00
 -1       161 5.00000E-01 1.00000E+00 5.00000E-01
 -1       162 7.50000E-01 1.00000E+00 1.00000E+00
 -1       163 5.00000E-01 1.00000E+00 1.00000E+00
 -1       164 2.50000E-01 1.00000E+00 1.00000E+00
 -1       165 5.00000E-01 1.00000E+00 1.50000E+00
 -1       166 7.50000E-01 1.00000E+00 2.00000E+00
 -1       167 5.00000E-01 1.00000E+00 2.00000E+00
 -1       168 2.50000E-01 1.00000E+00 2.00000E+00
 -1       169 5.00000E-01 1.00000E+00 2.50000E+00
 -1       170 7.50000E-01 1.00000E+00 3.00000E+00
 -1       171 5.00000E-01 1.00000E+00 3.00000E+00
 -1       172 2.50000E-01 1.00000E+00 3.00000E+00
 -1       173 5.00000E-01 1.00000E+00 3.50000E+00
 -1       174 7.50000E-01 1.00000E+00 4.00000E+00
 -1       175 5.00000E-01 1.00000E+00 4.00000E+00
 -1       176 2.50000E-01 1.00000E+00 4.00000E+00
 -1       177 5.00000E-01 1.00000E+00 4.50000E+00
 -1       178 7.50000E-01 1.00000E+00 5.00000E+00
 -1       179 5.00000E-01 1.00000E+00 5.00000E+00
 -1       180 2.50000E-01 1.00000E+00 5.00000E+00
 -1       181 5.00000E-01 1.00000E+00 5.50000E+00
 -1       182 7.50000E-01 1.00000E+00 6.00000E+00
 -1       183 5.00000E-01 1.00000E+00 6.00000E+00
 -1       184 2.50000E-01 1.00000E+00 6.00000E+00
 -1       190 0.00000E+00 5.00000E-01 5.00000E-01
 -1       191 0.00000E+00 7.50000E-01 1.00000E+00
 -1       192 0.00000E+00 5.00000E-01 1.00000E+00
 -1       193 0.00000E+00 2.50000E-01 1.00000E+00
 -1       194 0.00000E+00 5.00000E-01 1.50000E+00
 -1       195 0.00000E+00 7.50000E-01 2.00000E+00
 -1       196 0.00000E+00 5.00000E-01 2.00000E+00
 -1       197 0.00000E+00 2.50000E-01 2.00000E+00
 -1       198 0.00000E+00 5.00000E-01 2.50000E+00
 -1       199 0.00000E+00 7.50000E-01 3.00000E+00
 -1       200 0.00000E+00 5.00000E-01 3.00000E+00
 -1       201 0.00000E+00 2.50000E-01 3.00000E+00
 -1       202 0.00000E+00 5.00000E-01 3.50000E+00
 -1       203 0.00000E+00 7.50000E-01 4.00000E+00
 -1       204 0.00000E+00 5.00000E-01 4.00000E+00
 -1       205 0.00000E+00 2.50000E-01 4.00000E+00
 -1       206 0.00000E+00 5.00000E-01 4.50000E+00
 -1       207 0.00000E+00 7.50000E-01 5.00000E+00
 -1       208 0.00000E+00 5.00000E-01 5.00000E+00
 -1       209 0.00000E+00 2.50000E-01 5.00000E+00
 -1       210 0.00000E+00 5.00000E-01 5.50000E+00
 -1       211 0.00000E+00 7.50000E-01 6.00000E+00
 -1       212 0.00000E+00 5.00000E-01 6.00000E+00
 -1       213 0.00000E+00 2.50000E-01 6.00000E+00
 -1       219 5.00000E-01 5.00000E-01 5.00000E-01
 -1       220 5.00000E-01 2.50000E-01 1.00000E+00
 -1       221 2.50000E-01 5.00000E-01 1.00000E+00
 -1       222 5.00000E-01 5.00000E-01 1.00000E+00
 -1       223 7.50000E-01 5.00000E-01 1.00000E+00
 -1       224 5.00000E-01 7.50000E-01 1.00000E+00
 -1       225 5.00000E-01 5.00000E-01 1.50000E+00
 -1       226 5.00000E-01 2.50000E-01 2.00000E+00
 -1       227 2.50000E-01 5.00000E-01 2.00000E+00
 -1       228 5.00000E-01 5.00000E-01 2.00000E+00
 -1       229 7.50000E-01 5.00000E-01 2.00000E+00
 -1       230 5.00000E-01 7.50000E-01 2.00000E+00
 -1       231 5.00000E-01 5.00000E-01 2.50000E+00
 -1       232 5.00000E-01 2.50000E-01 3.00000E+00
 -1       233 2.50000E-01 5.00000E-01 3.00000E+00
 -1       234 5.00000E-01 5.00000E-01 3.00000E+00
 -1       235 7.50000E-01 5.00000E-01 3.00000E+00
 -1       236 5.00000E-01 7.50000E-01 3.00000E+00
 -1       237 5.00000E-01 5.00000E-01 3.50000E+00
 -1       238 5.00000E-01 2.50000E-01 4.00000E+00
 -1       239 2.50000E-01 5.00000E-01 4.00000E+00
 -1       240 5.00000E-01 5.00000E-01 4.00000E+00
 -1       241 7.50000E-01 5.00000E-01 4.00000E+00
 -1       242 5.00000E-01 7.50000E-01 4.00000E+00
 -1       243 5.00000E-01 5.00000E-01 4.50000E+00
 -1       244 5.00000E-01 2.50000E-01 5.00000E+00
 -1       245 2.50000E-01 5.00000E-01 5.00000E+00
 -1       246 5.00000E-01 5.00000E-01 5.00000E+00
 -1       247 7.50000E-01 5.00000E-01 5.00000E+00
 -1       248 5.00000E-01 7.50000E-01 5.00000E+00
 -1       249 5.00000E-01 5.00000E-01 5.50000E+00
 -1       250 5.00000E-01 2.50000E-01 6.00000E+00
 -1       251 2.50000E-01 5.00000E-01 6.00000E+00
 -1       252 5.00000E-01 5.00000E-01 6.00000E+00
 -1       253 7.50000E-01 5.00000E-01 6.00000E+00
 -1       254 5.00000E-01 7.50000E-01 6.00000E+00
 -3
    3C                            24                                     1
 -1         1    4    0    1
 -2         1        10        95        19        61       105       222       192         9        93
 -2        94        20        62       103       219       190       104       220       221       193
 -1         2    4    0    1
 -2        10         2        13        95       105        34       134       222        11        12
 -2        96        93       103        33       132       219       106       133       223       220
 -1         3    4    0    1
 -2        19        95        16         4       192       222       163        79        94        97
 -2        17        18       190       219       161        78       221       224       164       191
 -1         4    4    0    1
 -2        95        13         3        16       222       134        64       163        96        14
 -2        15        97       219       132        63       161       223       135       162       224
 -1         5    4    0    1
 -2        61       105       222       192        59       109       228       196       104       220
 -2       221       193        60       107       225       194       108       226       227       197
 -1         6    4    0    1
 -2       105        34       134       222       109        36       138       228       106       133
 -2       223       220       107        35       136       225       110       137       229       226
 -1         7    4    0    1
 -2       192       222       163        79       196       228       167        81       221       224
 -2       164       191       194       225       165        80       227       230       168       195
 -1         8    4    0    1
 -2       222       134        64       163       228       138        66       167       223       135
 -2       162       224       225       136        65       165       229       139       166       230
 -1         9    4    0    1
 -2        59       109       228       196        57       113       234       200       108       226
 -2       227       197        58       111       231       198       112       232       233       201
 -1        10    4    0    1
 -2       109        36       138       228       113        38       142       234       110       137
 -2       229       226       111        37       140       231       114       141       235       232
 -1        11    4    0    1
 -2       196       228       167        81       200       234       171        83       227       230
 -2       168       195       198       231       169        82       233       236       172       199
 -1        12    4    0    1
 -2       228       138        66       167       234       142        68       171       229       139
 -2       166       230       231       140        67       169       235       143       170       236
 -1        13    4    0    1
 -2        57       113       234       200        55       117       240       204       112       232
 -2       233       201        56       115       237       202       116       238       239       205
 -1        14    4    0    1
 -2       113        38       142       234       117        40       146       240       114       141
 -2       235       232       115        39       144       237       118       145       241       238
 -1        15    4    0    1
 -2       200       234       171        83       204       240       175        85       233       236
 -2       172       199       202       237       173        84       239       242       176       203
 -1        16    4    0    1
 -2       234       142        68       171       240       146        70       175       235       143
 -2       170       236       237       144        69       173       241       147       174       242
 -1        17    4    0    1
 -2        55       117       240       204        53       121       246       208       116       238
 -2       239       205        54       119       243       206       120       244       245       209
 -1        18    4    0    1
 -2       117        40       146       240       121        42       150       246       118       145
 -2       241       238       119        41       148       243       122       149       247       244
 -1        19    4    0    1
 -2       204       240       175        85       208       246       179        87       239       242
 -2       176       203       206       243       177        86       245       248       180       207
 -1        20    4    0    1
 -2       240       146        70       175       246       150        72       179       241       147
 -2       174       242       243       148        71       177       247       151       178       248
 -1        21    4    0    1
 -2        53       121       246       208        51       125       252       212       120       244
 -2       245       209        52       123       249       210       124       250       251       213
 -1        22    4    0    1
 -2       121        42       150       246       125        44       154       252       122       149
 -2       247       244       123        43       152       249       126       153       253       250
 -1        23    4    0    1
 -2       208       246       179        87       212       252       183        89       245       248
 -2       180       207       210       249       181        88       251       254       184       211
 -1        24    4    0    1
 -2       246       150        72       179       252       154        74       183       247       151
 -2       178       248       249       152        73       181       253       155       182       254
 -3
    1PSTEP                         1           1           1          
  100CL  101 4.00000E-03         201                     1    1           1
 -4  DISP        4    1
 -5  D1          1    2    1    0
 -5  D2          1    2    2    0
 -5  D3          1    2    3    0
 -5  ALL         1    2    0    0    1ALL
 -1         1 0.00000E+00 0.00000E+00 0.00000E+00
 -1         2 0.00000E+00 0.00000E+00 0.00000E+00
 -1         3 0.00000E+00 0.00000E+00 0.00000E+00
 -1         4 0.00000E+00 0.00000E+00 0.00000E+00
 -1         9 0.00000E+00 0.00000E+00 0.00000E+00
 -1        10 0.00000E+00 0.00000E+00 0.00000E+00
 -1        11 0.00000E+00 0.00000E+00 0.00000E+00
 -1        12 0.00000E+00 0.00000E+00 0.00000E+00
 -1        13 0.00000E+00 0.00000E+00 0.00000E+00
 -1        14 0.00000E+00 0.00000E+00 0.00000E+00
 -1        15 0.00000E+00 0.00000E+00 0.00000E+00
 -1        16 0.00000E+00 0.00000E+00 0.00000E+00
 -1        17 0.00000E+00 0.00000E+00 0.00000E+00
 -1        18 0.00000E+00 0.00000E+00 0.00000E+00
 -1        19 0.00000E+00 0.00000E+00 0.00000E+00
 -1        20 0.00000E+00 0.00000E+00 0.00000E+00
 -1        33 6.85698E-05-1.66973E-04-2.19602E-04
 -1        34 3.37256E-05-5.17124E-04-4.02231E-04
 -1        35 2.76962E-05-1.04175E-03-5.19869E-04
 -1        36 8.64323E-06-1.64057E-03-5.81405E-04
 -1        37-5.21289E-06-2.26613E-03-5.89057E-04
 -1        38-2.18179E-05-2.89206E-03-5.60025E-04
 -1        39-4.59711E-05-3.43155E-03-4.14869E-04
 -1        40-4.85333E-05-3.80669E-03-2.27572E-04
 -1        41-4.47505E-05-3.84180E-03-7.03605E-05
 -1        42-5.97922E-05-4.02062E-03-1.74823E-04
 -1        43 6.44150E-05-3.73708E-03 8.32268E-05
 -1        44-1.13730E-04-3.75484E-03 4.79550E-04
 -1        51 1.13723E-04-3.75486E-03 4.79551E-04
 -1        52-6.43979E-05-3.73707E-03 8.32375E-05
 -1        53 5.97835E-05-4.02063E-03-1.74825E-04
 -1        54 4.47583E-05-3.84180E-03-7.03577E-05
 -1        55 4.85315E-05-3.80669E-03-2.27575E-04
 -1        56 4.59766E-05-3.43155E-03-4.14868E-04
 -1        57 2.18182E-05-2.89206E-03-5.60025E-04
 -1        58 5.21585E-06-2.26613E-03-5.89056E-04
 -1        59-8.64263E-06-1.64057E-03-5.81405E-04
 -1        60-2.76949E-05-1.04175E-03-5.19868E-04
 -1        61-3.37255E-05-5.17125E-04-4.02231E-04
 -1        62-6.85695E-05-1.66973E-04-2.19602E-04
 -1        63-6.71918E-05-1.64934E-04 2.15557E-04
 -1        64-3.35373E-05-5.16477E-04 3.93558E-04
 -1        65-2.49005E-05-1.04120E-03 5.07705E-04
 -1        66-8.31570E-06-1.64817E-03 5.65194E-04
 -1        67 4.85024E-06-2.25459E-03 5.69097E-04
 -1        68 1.39634E-05-2.89276E-03 5.30447E-04
 -1        69 6.56359E-05-3.44445E-03 3.83473E-04
 -1        70 7.69997E-05-3.91414E-03 1.97723E-04
 -1        71-1.74142E-05-3.69616E-03 3.40686E-05
 -1        72-1.40217E-04-3.70986E-03 9.41167E-05
 -1        73 2.61299E-04-4.23534E-03-1.80027E-04
 -1        74 4.49598E-04-4.87972E-03-5.34105E-04
 -1        78 6.71919E-05-1.64934E-04 2.15557E-04
 -1        79 3.35381E-05-5.16477E-04 3.93558E-04
 -1        80 2.49013E-05-1.04120E-03 5.07705E-04
 -1        81 8.31809E-06-1.64817E-03 5.65196E-04
 -1        82-4.84852E-06-2.25459E-03 5.69097E-04
 -1        83-1.39587E-05-2.89276E-03 5.30448E-04
 -1        84-6.56338E-05-3.44445E-03 3.83474E-04
 -1        85-7.69909E-05-3.91415E-03 1.97726E-04
 -1        86 1.74154E-05-3.69616E-03 3.40657E-05
 -1        87 1.40229E-04-3.70987E-03 9.41136E-05
 -1        88-2.61303E-04-4.23533E-03-1.80036E-04
 -1        89-4.49580E-04-4.87972E-03-5.34104E-04
 -1        93 0.00000E+00 0.00000E+00 0.00000E+00
 -1        94 0.00000E+00 0.00000E+00 0.00000E+00
 -1        95 0.00000E+00 0.00000E+00 0.00000E+00
 -1        96 0.00000E+00 0.00000E+00 0.00000E+00
 -1        97 0.00000E+00 0.00000E+00 0.00000E+00
 -1       103 3.59489E-11-1.95196E-04-2.15551E-04
 -1       104-1.68051E-05-5.38075E-04-4.08497E-04
 -1       105 4.08055E-10-5.40749E-04-4.11348E-04
 -1       106 1.68055E-05-5.38075E-04-4.08497E-04
 -1       107 3.77323E-10-1.05254E-03-5.22787E-04
 -1       108-3.54283E-06-1.64276E-03-5.85436E-04
 -1       109 1.27378E-09-1.65452E-03-5.84027E-04
 -1       110 3.54439E-06-1.64276E-03-5.85436E-04
 -1       111 8.08995E-10-2.25666E-03-5.93465E-04
 -1       112 7.83869E-06-2.92025E-03-5.61474E-04
 -1       113 2.59840E-09-2.91330E-03-5.63306E-04
 -1       114-7.83587E-06-2.92025E-03-5.61473E-04
 -1       115 1.01489E-09-3.38865E-03-4.24021E-04
 -1       116 3.57457E-05-3.78197E-03-2.21656E-04
 -1       117 4.81009E-09-3.92093E-03-1.96642E-04
 -1       118-3.57419E-05-3.78196E-03-2.21655E-04
 -1       119 1.48859E-10-3.81825E-03-7.66841E-05
 -1       120-6.41228E-06-4.21368E-03-1.28841E-04
 -1       121 9.80928E-09-4.05783E-03-1.31436E-04
 -1       122 6.41799E-06-4.21367E-03-1.28839E-04
 -1       123-3.87389E-09-3.73876E-03-3.77746E-05
 -1       124 1.64998E-04-3.18910E-03 4.59637E-04
 -1       125 2.87882E-08-3.85526E-03 4.79976E-04
 -1       126-1.64974E-04-3.18910E-03 4.59628E-04
 -1       132 8.40990E-07-1.27348E-04-1.88058E-06
 -1       133 1.73430E-05-5.03833E-04-1.91399E-04
 -1       134 1.03403E-06-5.08798E-04-3.38407E-06
 -1       135-1.64624E-05-5.03944E-04 1.83362E-04
 -1       136-1.76436E-07-1.02289E-03-6.57602E-06
 -1       137 5.40810E-06-1.63794E-03-2.89133E-04
 -1       138 6.57778E-07-1.62883E-03-8.68166E-06
 -1       139-4.10250E-06-1.64000E-03 2.73324E-04
 -1       140 1.95336E-06-2.28247E-03-1.07942E-05
 -1       141-1.16908E-05-2.87599E-03-2.63747E-04
 -1       142 6.25600E-06-2.88315E-03-5.96625E-06
 -1       143 1.28747E-05-2.88297E-03 2.39960E-04
 -1       144-1.02460E-05-3.45607E-03-1.49678E-05
 -1       145-1.93021E-05-3.82180E-03-1.44926E-04
 -1       146-1.45649E-05-3.71042E-03-2.93995E-05
 -1       147 1.59685E-05-3.85166E-03 1.08141E-04
 -1       148 3.12459E-05-3.96154E-03-2.79952E-05
 -1       149-4.72947E-05-3.67319E-03-5.73215E-05
 -1       150 9.62246E-05-3.70049E-03-2.06109E-06
 -1       151 4.52888E-05-3.58696E-03 1.87838E-06
 -1       152-1.46069E-04-3.99867E-03 1.47707E-05
 -1       153 1.19274E-04-3.86782E-03 2.03112E-04
 -1       154-1.30117E-04-2.57427E-03-2.44565E-05
 -1       155-1.27290E-04-4.19472E-03-2.58463E-04
 -1       161 7.44808E-11-1.93788E-04 2.11156E-04
 -1       162-1.65253E-05-5.37309E-04 4.00559E-04
 -1       163 1.25641E-10-5.37875E-04 4.02840E-04
 -1       164 1.65258E-05-5.37310E-04 4.00559E-04
 -1       165 5.87557E-10-1.05257E-03 5.10949E-04
 -1       166-4.19838E-06-1.63966E-03 5.68817E-04
 -1       167 4.56131E-10-1.64967E-03 5.71346E-04
 -1       168 4.20004E-06-1.63966E-03 5.68818E-04
 -1       169 1.36740E-09-2.25783E-03 5.69027E-04
 -1       170 7.46422E-06-2.92005E-03 5.37895E-04
 -1       171 6.32864E-10-2.87657E-03 5.32455E-04
 -1       172-7.46124E-06-2.92005E-03 5.37896E-04
 -1       173 2.36631E-09-3.41241E-03 3.95296E-04
 -1       174 3.59141E-05-3.71326E-03 1.82638E-04
 -1       175-4.90559E-11-3.82484E-03 1.84539E-04
 -1       176-3.59097E-05-3.71326E-03 1.82639E-04
 -1       177 3.49546E-09-3.76953E-03 2.41013E-05
 -1       178-5.83257E-05-4.32784E-03 8.02489E-05
 -1       179-3.37497E-09-3.84114E-03 4.81100E-05
 -1       180 5.83289E-05-4.32784E-03 8.02503E-05
 -1       181 7.90558E-09-3.96686E-03-6.66123E-05
 -1       182 1.61919E-04-2.71333E-03-5.08494E-04
 -1       183-1.62989E-08-4.74955E-03-5.13480E-04
 -1       184-1.61926E-04-2.71333E-03-5.08508E-04
 -1       190-8.40811E-07-1.27348E-04-1.88038E-06
 -1       191 1.64631E-05-5.03944E-04 1.83362E-04
 -1       192-1.03347E-06-5.08798E-04-3.38366E-06
 -1       193-1.73426E-05-5.03833E-04-1.91399E-04
 -1       194 1.77437E-07-1.02289E-03-6.57550E-06
 -1       195 4.10455E-06-1.64000E-03 2.73324E-04
 -1       196-6.56036E-07-1.62883E-03-8.68103E-06
 -1       197-5.40693E-06-1.63794E-03-2.89132E-04
 -1       198-1.95117E-06-2.28247E-03-1.07936E-05
 -1       199-1.28706E-05-2.88297E-03 2.39961E-04
 -1       200-6.25284E-06-2.88315E-03-5.96565E-06
 -1       201 1.16925E-05-2.87599E-03-2.63747E-04
 -1       202 1.02494E-05-3.45608E-03-1.49672E-05
 -1       203-1.59622E-05-3.85166E-03 1.08142E-04
 -1       204 1.45696E-05-3.71042E-03-2.93989E-05
 -1       205 1.93035E-05-3.82180E-03-1.44927E-04
 -1       206-3.12423E-05-3.96154E-03-2.79954E-05
 -1       207-4.52778E-05-3.58696E-03 1.88048E-06
 -1       208-9.62194E-05-3.70048E-03-2.06078E-06
 -1       209 4.72926E-05-3.67319E-03-5.73229E-05
 -1       210 1.46073E-04-3.99868E-03 1.47715E-05
 -1       211 1.27293E-04-4.19470E-03-2.58477E-04
 -1       212 1.30124E-04-2.57423E-03-2.44524E-05
 -1       213-1.19272E-04-3.86781E-03 2.03120E-04
 -1       219 7.84464E-11-1.54984E-04-1.68501E-06
 -1       220 3.27154E-10-5.25202E-04-1.97459E-04
 -1       221-4.92176E-07-5.26639E-04-4.28393E-06
 -1       222 2.39850E-10-5.28280E-04-4.47960E-06
 -1       223 4.92687E-07-5.26640E-04-4.28413E-06
 -1       224 1.84363E-10-5.23611E-04 1.89262E-04
 -1       225 5.16103E-10-1.03589E-03-6.03744E-06
 -1       226 1.02069E-09-1.64637E-03-2.93747E-04
 -1       227-4.05527E-07-1.63074E-03-8.08469E-06
 -1       228 7.54802E-10-1.63267E-03-9.94042E-06
 -1       229 4.07151E-07-1.63074E-03-8.08501E-06
 -1       230 6.11756E-10-1.64432E-03 2.75821E-04
 -1       231 1.18705E-09-2.28059E-03-8.82053E-06
 -1       232 1.94718E-09-2.88662E-03-2.68986E-04
 -1       233-2.69208E-06-2.87971E-03-1.49835E-05
 -1       234 1.35958E-09-2.87866E-03-1.65026E-05
 -1       235 2.69502E-06-2.87971E-03-1.49837E-05
 -1       236 9.88595E-10-2.86682E-03 2.42830E-04
 -1       237 1.79205E-09-3.42575E-03-1.09882E-05
 -1       238 3.34903E-09-3.88320E-03-1.35327E-04
 -1       239 7.32266E-06-3.70672E-03-1.68931E-05
 -1       240 1.63050E-09-3.73191E-03-2.34913E-05
 -1       241-7.31870E-06-3.70672E-03-1.68935E-05
 -1       242 7.74261E-10-3.83720E-03 9.31368E-05
 -1       243 2.53714E-09-3.92770E-03-2.51482E-05
 -1       244 5.07968E-09-3.79094E-03-2.32836E-05
 -1       245-4.14254E-05-3.87182E-03-3.09817E-05
 -1       246 1.56534E-09-3.94550E-03-2.33418E-05
 -1       247 4.14296E-05-3.87182E-03-3.09812E-05
 -1       248-6.69864E-10-3.69967E-03-1.25453E-05
 -1       249 2.01930E-09-3.77024E-03-1.60876E-05
 -1       250 1.56790E-08-4.42938E-03 1.83957E-04
 -1       251 4.57101E-05-2.77943E-03-1.22803E-05
 -1       252-2.58815E-09-3.37007E-03-1.87925E-05
 -1       253-4.57096E-05-2.77946E-03-1.22851E-05
 -1       254-1.09120E-08-4.78788E-03-2.78292E-04
 -3
    1PSTEP                         2           2           1          
  100CL  102 8.00000E-03         201                     1    2           1
 -4  DISP        4    1
 -5  D1          1    2    1    0
 -5  D2          1    2    2    0
 -5  D3          1    2    3    0
 -5  ALL         1    2    0    0    1ALL
 -1         1 0.00000E+00 0.00000E+00 0.00000E+00
 -1         2 0.00000E+00 0.00000E+00 0.00000E+00
 -1         3 0.00000E+00 0.00000E+00 0.00000E+00
 -1         4 0.00000E+00 0.00000E+00 0.00000E+00
 -1         9 0.00000E+00 0.00000E+00 0.00000E+00
 -1        10 0.00000E+00 0.00000E+00 0.00000E+00
 -1        11 0.00000E+00 0.00000E+00 0.00000E+00
 -1        12 0.00000E+00 0.00000E+00 0.00000E+00
 -1        13 0.00000E+00 0.00000E+00 0.00000E+00
 -1        14 0.00000E+00 0.00000E+00 0.00000E+00
 -1        15 0.00000E+00 0.00000E+00 0.00000E+00
 -1        16 0.00000E+00 0.00000E+00 0.00000E+00
 -1        17 0.00000E+00 0.00000E+00 0.00000E+00
 -1        18 0.00000E+00 0.00000E+00 0.00000E+00
 -1        19 0.00000E+00 0.00000E+00 0.00000E+00
 -1        20 0.00000E+00 0.00000E+00 0.00000E+00
 -1        33-2.23839E-05 5.62107E-05 7.24082E-05
 -1        34-1.06717E-05 1.73567E-04 1.31359E-04
 -1        35-8.80106E-06 3.48835E-04 1.69888E-04
 -1        36-3.46570E-06 5.47497E-04 1.88098E-04
 -1        37 4.21248E-06 7.59245E-04 1.88172E-04
 -1        38 1.15643E-05 9.68552E-04 1.67837E-04
 -1        39 1.41457E-05 1.13062E-03 1.24048E-04
 -1        40 4.32203E-06 1.25256E-03 5.56090E-05
 -1        41 3.34074E-05 1.28698E-03 6.50852E-06
 -1        42 4.13257E-05 1.30502E-03-3.86145E-05
 -1        43-3.13747E-05 1.15913E-03-8.08484E-05
 -1        44-2.38863E-04 1.03286E-03-1.70333E-04
 -1        51 2.38867E-04 1.03285E-03-1.70333E-04
 -1        52 3.13802E-05 1.15913E-03-8.08488E-05
 -1        53-4.13233E-05 1.30502E-03-3.86155E-05
 -1        54-3.34029E-05 1.28698E-03 6.50864E-06
 -1        55-4.31854E-06 1.25256E-03 5.56093E-05
 -1        56-1.41419E-05 1.13062E-03 1.24049E-04
 -1        57-1.15616E-05 9.68551E-04 1.67838E-04
 -1        58-4.21005E-06 7.59245E-04 1.88173E-04
 -1        59 3.46731E-06 5.47497E-04 1.88099E-04
 -1        60 8.80219E-06 3.48835E-04 1.69888E-04
 -1        61 1.06722E-05 1.73567E-04 1.31360E-04
 -1        62 2.23841E-05 5.62108E-05 7.24084E-05
 -1        63 2.27998E-05 5.68273E-05-7.36303E-05
 -1        64 1.07286E-05 1.73763E-04-1.33980E-04
 -1        65 9.64911E-06 3.48996E-04-1.73563E-04
 -1        66 3.56799E-06 5.45196E-04-1.92996E-04
 -1        67-4.33230E-06 7.62745E-04-1.94203E-04
 -1        68-1.39520E-05 9.68357E-04-1.76775E-04
 -1        69-8.14715E-06 1.12667E-03-1.33534E-04
 -1        70 4.36022E-06 1.21999E-03-6.46248E-05
 -1        71-5.24218E-05 1.33124E-03-1.74706E-05
 -1        72-1.02158E-04 1.39935E-03 1.42203E-05
 -1        73 1.30827E-04 1.00749E-03 5.15879E-05
 -1        74 3.42138E-04 6.90960E-04 1.53849E-04
 -1        78-2.27997E-05 5.68272E-05-7.36301E-05