
 displacements (vx,vy,vz) for set NALL and time  0.4000000E-02

         1  0.000000E+00  0.000000E+00  0.000000E+00
         2  0.000000E+00  0.000000E+00  0.000000E+00
         3  0.000000E+00  0.000000E+00  0.000000E+00
         4  0.000000E+00  0.000000E+00  0.000000E+00
         9  0.000000E+00  0.000000E+00  0.000000E+00
        10  0.000000E+00  0.000000E+00  0.000000E+00
        11  0.000000E+00  0.000000E+00  0.000000E+00
        12  0.000000E+00  0.000000E+00  0.000000E+00
        13  0.000000E+00  0.000000E+00  0.000000E+00
        14  0.000000E+00  0.000000E+00  0.000000E+00
        15  0.000000E+00  0.000000E+00  0.000000E+00
        16  0.000000E+00  0.000000E+00  0.000000E+00
        17  0.000000E+00  0.000000E+00  0.000000E+00
        18  0.000000E+00  0.000000E+00  0.000000E+00
        19  0.000000E+00  0.000000E+00  0.000000E+00
        20  0.000000E+00  0.000000E+00  0.000000E+00
        33  6.230101E-05 -1.529925E-04 -1.998339E-04
        34  2.994201E-05 -4.683927E-04 -3.642750E-04
        35  2.525050E-05 -9.480758E-04 -4.717463E-04
        36  7.577329E-06 -1.480876E-03 -5.241920E-04
        37 -6.241229E-06 -2.059802E-03 -5.301362E-04
        38 -2.295305E-05 -2.600799E-03 -4.931438E-04
        39 -3.951092E-05 -3.097432E-03 -3.715809E-04
        40 -2.362173E-05 -3.371452E-03 -1.833214E-04
        41 -6.806629E-05 -3.487501E-03 -5.455359E-05
        42 -6.033525E-05 -3.587581E-03 -8.754666E-05
        43  6.122397E-05 -3.227274E-03  1.956125E-05
        44  9.219183E-05 -3.215748E-03  3.680898E-04
        51 -9.190230E-05 -3.215460E-03  3.676095E-04
        52 -6.122231E-05 -3.227274E-03  1.947986E-05
        53  6.040775E-05 -3.587510E-03 -8.750603E-05
        54  6.804252E-05 -3.487526E-03 -5.454591E-05
        55  2.365325E-05 -3.371421E-03 -1.833188E-04
        56  3.950442E-05 -3.097439E-03 -3.715873E-04
        57  2.296513E-05 -2.600788E-03 -4.931381E-04
        58  6.237794E-06 -2.059806E-03 -5.301365E-04
        59 -7.571997E-06 -1.480872E-03 -5.241903E-04
        60 -2.525159E-05 -9.480771E-04 -4.717470E-04
        61 -2.994022E-05 -4.683910E-04 -3.642740E-04
        62 -6.230136E-05 -1.529929E-04 -1.998343E-04
        63 -6.074926E-05 -1.514213E-04  1.958699E-04
        64 -2.944192E-05 -4.684305E-04  3.559451E-04
        65 -2.340685E-05 -9.460579E-04  4.595867E-04
        66 -7.952784E-06 -1.484789E-03  5.073412E-04
        67  9.021419E-06 -2.054595E-03  5.101552E-04
        68  2.261066E-05 -2.614604E-03  4.666766E-04
        69  4.406285E-05 -3.087548E-03  3.409305E-04
        70  3.485111E-05 -3.421526E-03  1.475688E-04
        71  5.550974E-05 -3.435367E-03  1.161699E-05
        72  1.442566E-06 -3.502145E-03  3.059237E-05
        73  3.505974E-05 -3.376929E-03 -8.568039E-05
        74 -1.871697E-05 -3.552508E-03 -4.249690E-04
        78  6.074963E-05 -1.514217E-04  1.958703E-04
        79  2.944022E-05 -4.684289E-04  3.559442E-04
        80  2.340813E-05 -9.460592E-04  4.595874E-04
        81  7.947766E-06 -1.484784E-03  5.073395E-04
        82 -9.017565E-06 -2.054599E-03  5.101556E-04
        83 -2.262219E-05 -2.614593E-03  4.666711E-04
        84 -4.405567E-05 -3.087555E-03  3.409370E-04
        85 -3.488183E-05 -3.421495E-03  1.475662E-04
        86 -5.548517E-05 -3.435392E-03  1.160937E-05
        87 -1.514305E-06 -3.502074E-03  3.055167E-05
        88 -3.506041E-05 -3.376929E-03 -8.559910E-05
        89  1.842862E-05 -3.552220E-03 -4.244888E-04
        93  0.000000E+00  0.000000E+00  0.000000E+00
        94  0.000000E+00  0.000000E+00  0.000000E+00
        95  0.000000E+00  0.000000E+00  0.000000E+00
        96  0.000000E+00  0.000000E+00  0.000000E+00
        97  0.000000E+00  0.000000E+00  0.000000E+00
       103  1.254998E-10 -1.775281E-04 -1.957878E-04
       104 -1.477396E-05 -4.890340E-04 -3.706391E-04
       105 -7.218559E-10 -4.936027E-04 -3.735670E-04
       106  1.477421E-05 -4.890349E-04 -3.706395E-04
       107  7.207973E-10 -9.548717E-04 -4.733802E-04
       108 -3.673634E-06 -1.490311E-03 -5.293177E-04
       109 -1.931778E-09 -1.506723E-03 -5.303891E-04
       110  3.674081E-06 -1.490313E-03 -5.293188E-04
       111  1.625497E-09 -2.040127E-03 -5.335455E-04
       112  1.075718E-05 -2.633340E-03 -4.993848E-04
       113 -5.446855E-09 -2.641179E-03 -5.033966E-04
       114 -1.075558E-05 -2.633346E-03 -4.993865E-04
       115  4.345849E-09 -3.047090E-03 -3.674966E-04
       116  1.503890E-05 -3.403064E-03 -1.922527E-04
       117 -1.102813E-08 -3.557241E-03 -1.908697E-04
       118 -1.503748E-05 -3.403079E-03 -1.922586E-04
       119  9.188424E-09 -3.396382E-03 -5.684591E-05
       120  2.279342E-05 -3.672923E-03 -8.284254E-05
       121 -2.935366E-08 -3.565225E-03 -1.105969E-04
       122 -2.277535E-05 -3.672960E-03 -8.283827E-05
       123  4.018853E-08 -3.313501E-03  8.118544E-05
       124 -8.796563E-06 -2.884780E-03  3.413847E-04
       125  4.564618E-08 -3.219954E-03  3.873238E-04
       126  8.962953E-06 -2.884945E-03  3.415589E-04
       132  6.957645E-07 -1.159353E-04 -1.954768E-06
       133  1.562686E-05 -4.586959E-04 -1.735415E-04
       134  7.630496E-07 -4.655300E-04 -3.628875E-06
       135 -1.468759E-05 -4.589068E-04  1.656672E-04
       136  3.338470E-07 -9.277150E-04 -6.371772E-06
       137  3.838314E-06 -1.486295E-03 -2.604720E-04
       138  1.294363E-06 -1.485668E-03 -7.912589E-06
       139 -2.695274E-06 -1.487487E-03  2.443406E-04
       140  3.862794E-07 -2.063439E-03 -1.088172E-05
       141 -9.014416E-06 -2.602531E-03 -2.338627E-04
       142  2.012177E-06 -2.624897E-03 -8.457521E-06
       143  1.047779E-05 -2.612470E-03  2.113104E-04
       144 -3.286321E-06 -3.100941E-03 -1.493266E-05
       145 -2.369385E-05 -3.439963E-03 -1.170542E-04
       146 -6.731497E-06 -3.394058E-03 -2.390422E-05
       147  1.952899E-05 -3.454111E-03  7.751663E-05
       148  1.163008E-05 -3.502924E-03 -2.180653E-05
       149  6.647643E-06 -3.350947E-03 -2.761485E-05
       150  3.163765E-05 -3.451114E-03 -1.377133E-05
       151 -1.356133E-05 -3.331977E-03 -1.951555E-05
       152 -5.009333E-05 -3.390197E-03 -2.239934E-05
       153 -6.643065E-05 -3.754282E-03  1.609077E-04
       154 -4.609058E-05 -3.031313E-03 -2.373993E-05
       155  7.827220E-05 -3.842932E-03 -2.089208E-04
       161 -1.153865E-10 -1.763578E-04  1.916645E-04
       162 -1.445831E-05 -4.879296E-04  3.625377E-04
       163  7.659663E-10 -4.913755E-04  3.654726E-04
       164  1.445815E-05 -4.879288E-04  3.625373E-04
       165 -6.274154E-10 -9.541483E-04  4.611645E-04
       166 -4.143480E-06 -1.488594E-03  5.134081E-04
       167  2.081646E-09 -1.499649E-03  5.161932E-04
       168  4.143341E-06 -1.488591E-03  5.134071E-04
       169 -1.408304E-09 -2.043901E-03  5.105016E-04
       170  1.203391E-05 -2.627238E-03  4.739295E-04
       171  5.727481E-09 -2.614345E-03  4.757852E-04
       172 -1.203495E-05 -2.627232E-03  4.739279E-04
       173 -4.008373E-09 -3.059750E-03  3.378671E-04
       174  1.465352E-05 -3.356031E-03  1.569268E-04
       175  1.141822E-08 -3.424882E-03  1.662778E-04
       176 -1.465413E-05 -3.356017E-03  1.569209E-04
       177 -8.765661E-09 -3.389349E-03  2.881532E-06
       178  1.291373E-05 -3.697861E-03  2.343373E-05
       179  2.986860E-08 -3.483072E-03  2.868567E-05
       180 -1.293098E-05 -3.697824E-03  2.343796E-05
       181 -3.980956E-08 -3.378711E-03 -1.255077E-04
       182 -4.165850E-05 -2.755386E-03 -3.942712E-04
       183 -4.512110E-08 -3.519834E-03 -4.342240E-04
       184  4.149351E-05 -2.755220E-03 -3.940970E-04
       190 -6.957479E-07 -1.159352E-04 -1.954749E-06
       191  1.468675E-05 -4.589067E-04  1.656668E-04
       192 -7.630003E-07 -4.655316E-04 -3.628836E-06
       193 -1.562592E-05 -4.586959E-04 -1.735411E-04
       194 -3.337491E-07 -9.277138E-04 -6.371721E-06
       195  2.692916E-06 -1.487487E-03  2.443396E-04
       196 -1.294201E-06 -1.485673E-03 -7.912530E-06
       197 -3.835641E-06 -1.486295E-03 -2.604709E-04
       198 -3.860699E-07 -2.063436E-03 -1.088166E-05
       199 -1.048366E-05 -2.612470E-03  2.113088E-04
       200 -2.011904E-06 -2.624908E-03 -8.457462E-06
       201  9.020860E-06 -2.602530E-03 -2.338610E-04
       202  3.286668E-06 -3.100933E-03 -1.493260E-05
       203 -1.954360E-05 -3.454110E-03  7.751078E-05
       204  6.731926E-06 -3.394080E-03 -2.390416E-05
       205  2.370922E-05 -3.439962E-03 -1.170483E-04
       206 -1.162973E-05 -3.502907E-03 -2.180651E-05
       207  1.352397E-05 -3.331960E-03 -1.951147E-05
       208 -3.163743E-05 -3.451173E-03 -1.377135E-05
       209 -6.609398E-06 -3.350930E-03 -2.761894E-05
       210  5.009399E-05 -3.390118E-03 -2.239934E-05
       211 -7.843852E-05 -3.842767E-03 -2.087461E-04
       212  4.609139E-05 -3.031222E-03 -2.374001E-05
       213  6.659732E-05 -3.754116E-03  1.607328E-04
       219  6.848407E-12 -1.415078E-04 -1.736872E-06
       220 -3.456356E-10 -4.780402E-04 -1.796474E-04
       221 -3.958707E-07 -4.796043E-04 -4.195806E-06
       222  2.354968E-11 -4.786848E-04 -4.514870E-06
       223  3.959184E-07 -4.796035E-04 -4.195825E-06
       224  3.919333E-10 -4.768005E-04  1.714641E-04
       225  4.859601E-11 -9.432408E-04 -5.895740E-06
       226 -9.508982E-10 -1.493532E-03 -2.662184E-04
       227 -5.816874E-07 -1.480977E-03 -8.185203E-06
       228  7.613557E-11 -1.477849E-03 -9.434853E-06
       229  5.818435E-07 -1.480975E-03 -8.185234E-06
       230  1.102976E-09 -1.490366E-03  2.485181E-04
       231  1.101879E-10 -2.067469E-03 -9.187118E-06
       232 -2.540385E-09 -2.608746E-03 -2.427263E-04
       233 -1.002832E-06 -2.605226E-03 -1.446165E-05
       234  1.390192E-10 -2.582545E-03 -1.695018E-05
       235  1.003112E-06 -2.605221E-03 -1.446169E-05
       236  2.817757E-09 -2.593448E-03  2.166227E-04
       237  1.702103E-10 -3.104805E-03 -1.040918E-05
       238 -5.669252E-09 -3.476136E-03 -1.245199E-04
       239  4.648893E-06 -3.339077E-03 -1.654837E-05
       240  1.899815E-10 -3.331635E-03 -1.905310E-05
       241 -4.648504E-06 -3.339065E-03 -1.654840E-05
       242  6.062426E-09 -3.415264E-03  8.205834E-05
       243  2.125343E-10 -3.507659E-03 -2.763450E-05
       244 -1.294625E-08 -3.307089E-03 -2.420598E-05
       245 -1.128862E-05 -3.458235E-03 -3.215016E-05
       246  2.117018E-10 -3.284637E-03 -2.467297E-05
       247  1.128900E-05 -3.458208E-03 -3.215017E-05
       248  1.338857E-08 -3.263583E-03 -6.780725E-06
       249  1.954957E-10 -3.497728E-03 -2.225457E-05
       250  4.031578E-08 -3.373663E-03  1.047533E-04
       251  4.687856E-06 -2.461716E-03  1.521681E-05
       252  1.424152E-10 -2.612032E-03 -6.638579E-06
       253 -4.687543E-06 -2.461796E-03  1.521688E-05
       254 -3.984174E-08 -3.526288E-03 -2.521259E-04

 forces (fx,fy,fz) for set NALL and time  0.4000000E-02

         1  4.861305E-01  8.221414E-01  7.130421E-02
         2 -4.861536E-01  8.221644E-01  7.130849E-02
         3  4.838484E-01  8.245327E-01 -8.696484E-02
         4 -4.838256E-01  8.245098E-01 -8.696059E-02
         9 -1.593784E-02  1.476833E+00  5.203377E+00
        10  3.647004E-06  1.820755E+00 -5.710996E-02
        11  1.594616E-02  1.476855E+00  5.203384E+00
        12 -9.229000E-01 -1.521441E+00  3.529555E+00
        13 -1.031202E-02  1.109085E+00 -2.323464E-02
        14  8.838335E-01 -1.528841E+00 -3.385509E+00
        15 -1.343527E-02  1.440677E+00 -5.062815E+00
        16 -3.736652E-06  1.795887E+00  9.632430E-04
        17  1.342728E-02  1.440655E+00 -5.062808E+00
        18 -8.838116E-01 -1.528832E+00 -3.385503E+00
        19  1.031180E-02  1.109092E+00 -2.323465E-02
        20  9.228778E-01 -1.521433E+00  3.529547E+00
        33  8.586350E-08 -2.207407E-04  3.768771E-04
        34 -1.172655E-07  3.058468E-05  7.193479E-04
        35 -4.929940E-08  2.621085E-04 -1.946650E-03
        36  2.868069E-07 -2.358280E-03  1.809116E-03
        37 -7.430558E-07  5.598142E-03  1.109511E-03
        38  9.994699E-07  2.640641E-02 -6.445672E-02
        39 -1.347675E-06 -7.596895E-02  1.058087E-01
        40  6.891001E-08  3.277554E-01 -2.096310E-01
        41  2.250355E-06 -2.626854E-01  2.103464E-01
        42 -2.040169E-07  1.556881E-01 -9.368014E-02
        43  1.028176E-08  9.966808E-03 -4.414593E-02
        44 -1.600753E+00  4.441309E+01  1.774032E+00
        51  1.606147E+00  4.441849E+01  1.765138E+00
        52 -4.159168E-07  9.966473E-03 -4.414593E-02
        53  6.982262E-07  1.556887E-01 -9.368046E-02
        54 -2.989248E-06 -2.626861E-01  2.103463E-01
        55  4.258582E-07  3.277558E-01 -2.096315E-01
        56  8.573728E-07 -7.596884E-02  1.058087E-01
        57 -7.349780E-07  2.640631E-02 -6.445713E-02
        58  4.897342E-07  5.598245E-03  1.109562E-03
        59 -1.970265E-07 -2.358343E-03  1.808883E-03
        60  2.463698E-09  2.621355E-04 -1.946657E-03
        61  1.004755E-07  3.058321E-05  7.192644E-04
        62 -4.797359E-08 -2.207366E-04  3.768867E-04
        63  1.327268E-08 -2.175494E-04 -3.752088E-04
        64 -4.326512E-08  3.263644E-05 -7.207659E-04
        65  3.118048E-08  2.548813E-04  1.955598E-03
        66  2.782845E-07 -2.338505E-03 -1.812645E-03
        67 -6.182045E-07  5.570465E-03 -1.090231E-03
        68  1.108353E-06  2.645087E-02  6.445039E-02
        69 -1.567104E-06 -7.601876E-02 -1.057797E-01
        70  3.656126E-06  3.278287E-01  2.096233E-01
        71 -5.010966E-06 -2.627619E-01 -2.103163E-01
        72  4.349703E-06  1.557608E-01  9.367296E-02
        73 -2.363581E-06  9.922132E-03  4.415918E-02
        74 -3.120525E-01  3.258853E+01 -1.269937E+00
        78 -3.932641E-08 -2.176415E-04 -3.752337E-04
        79  7.586634E-08  3.271701E-05 -7.207912E-04
        80 -6.999686E-08  2.548396E-04  1.955575E-03
        81 -1.548103E-07 -2.338438E-03 -1.812860E-03
        82  3.431330E-07  5.570380E-03 -1.090177E-03
        83 -8.442533E-07  2.645101E-02  6.444996E-02
        84  1.130984E-06 -7.601893E-02 -1.057798E-01
        85 -3.070822E-06  3.278282E-01  2.096224E-01
        86  3.873619E-06 -2.627607E-01 -2.103162E-01
        87 -3.749788E-06  1.557601E-01  9.367235E-02
        88  1.738299E-06  9.922468E-03  4.415927E-02
        89  3.066828E-01  3.259389E+01 -1.261041E+00
        93  3.032601E-05 -2.547806E+00  5.959263E+00
        94  4.408583E-04  6.577899E-01  1.171168E-01
        95 -1.167772E-07  2.371251E+00 -5.071206E-02
        96 -4.405680E-04  6.577285E-01  1.171174E-01
        97 -3.035023E-05 -2.555354E+00 -5.699320E+00
       103  3.975932E-09 -4.413688E-04  7.537130E-04
       104 -4.500827E-08 -2.052748E-04  5.490377E-04
       105 -2.479803E-08  6.114371E-05  1.438744E-03
       106  4.515693E-08 -2.053301E-04  5.489269E-04
       107 -7.932756E-09  5.244852E-04 -3.893745E-03
       108  2.195205E-07 -2.281314E-03 -1.105918E-02
       109 -7.327126E-08 -4.716613E-03  3.618370E-03
       110 -2.168372E-07 -2.281371E-03 -1.105961E-02
       111  1.383033E-07  1.119639E-02  2.218075E-03
       112  8.189243E-07  3.513154E-02  8.808749E-02
       113 -1.489409E-07  5.281293E-02 -1.289131E-01
       114 -8.191671E-07  3.513142E-02  8.808674E-02
       115  3.009477E-07 -1.519385E-01  2.116180E-01
       116 -1.113931E-07 -6.336880E-01  4.125526E-01
       117 -1.722530E-07 -5.870808E+00 -4.192598E-01
       118  1.269795E-07 -6.336878E-01  4.125518E-01
       119  3.286929E-07 -5.253627E-01  4.206958E-01
       120 -1.875134E-06 -1.172890E-01  8.472243E-02
       121 -1.316863E-07  3.113748E-01 -1.873601E-01
       122  1.802821E-06 -1.172884E-01  8.472200E-02
       123  2.504481E-07  1.993419E-02 -8.829171E-02
       124 -2.848251E+00  1.730786E+01 -1.941655E+00
       125  2.298626E-03  7.796987E+01  4.593546E+00
       126  2.846596E+00  1.730230E+01 -1.939468E+00
       132  1.661154E-07 -4.376197E-04 -1.441180E-06
       133  2.411151E-07 -2.054497E-04  4.058453E-04
       134 -1.913280E-07  6.370991E-05  3.662705E-06
       135  6.354193E-08 -2.050823E-04 -4.079218E-04
       136  1.073118E-07  5.154683E-04 -8.457991E-06
       137 -8.779588E-08 -2.284628E-03 -8.309851E-03
       138  4.760681E-07 -4.694467E-03  9.686104E-06
       139 -1.627221E-07 -2.298005E-03  8.304872E-03
       140 -1.101596E-06  1.116393E-02 -1.781818E-05
       141 -9.952632E-07  3.512372E-02  6.603955E-02
       142  1.963603E-06  5.286182E-02  1.649843E-05
       143 -1.024179E-06  3.508920E-02 -6.604745E-02
       144 -2.455990E-06 -1.519960E-01 -2.622794E-05
       145 -1.319798E-06 -6.337013E-01  3.093810E-01
       146  5.384511E-06  6.555906E-01  2.050810E-05
       147 -3.696345E-06 -6.337604E-01 -3.093902E-01
       148 -8.209228E-06 -5.254576E-01 -2.738936E-05
       149 -4.791147E-07 -1.173044E-01  6.352011E-02
       150  5.192494E-06  3.114546E-01  1.492874E-05
       151 -5.771170E-06 -1.173715E-01 -6.352570E-02
       152 -3.009368E-06  1.988233E-02 -1.224049E-05
       153  1.974392E+00 -1.186366E+02 -2.854912E+00
       154 -1.846552E+00  8.802326E+01  2.387958E-01
       155  4.507777E+00 -1.110044E+02  1.493759E+00
       161 -4.335008E-08 -4.352223E-04 -7.504898E-04
       162  8.267988E-09 -2.050742E-04 -5.387073E-04
       163  2.527870E-08  6.537113E-05 -1.441383E-03
       164 -5.824802E-08 -2.051770E-04 -5.386138E-04
       165 -1.734329E-09  5.096369E-04  3.910655E-03
       166 -1.249895E-07 -2.299434E-03  1.108707E-02
       167 -4.249033E-08 -4.676947E-03 -3.624915E-03
       168  9.538538E-08 -2.299539E-03  1.108751E-02
       169  1.259608E-07  1.114086E-02 -2.182385E-03
       170 -7.444512E-07  3.508542E-02 -8.804033E-02
       171 -1.278404E-07  5.290171E-02  1.289019E-01
       172  7.292618E-07  3.508526E-02 -8.803951E-02
       173  2.869359E-07 -1.520372E-01 -2.115641E-01
       174 -2.408185E-06 -6.337673E-01 -4.124923E-01
       175 -3.248849E-07  6.556574E-01  4.192484E-01
       176  2.482831E-06 -6.337669E-01 -4.124912E-01
       177  6.878723E-07 -5.255241E-01 -4.206388E-01
       178 -3.667076E-06 -1.173797E-01 -8.468214E-02
       179 -2.548331E-07  3.115209E-01  1.873476E-01
       180  3.648469E-06 -1.173787E-01 -8.468137E-02
       181  3.610023E-07  1.984510E-02  8.831608E-02
       182 -6.852560E+00  3.368365E+01  2.145009E+00
       183 -2.291135E-03  5.813402E+01 -2.369156E+00
       184  6.854219E+00  3.368925E+01  2.147193E+00
       190 -1.442204E-07 -4.377957E-04 -1.469866E-06
       191 -8.442720E-08 -2.051910E-04 -4.079489E-04
       192  1.806938E-07  6.376903E-05  3.558058E-06
       193 -1.801358E-07 -2.053540E-04  4.058836E-04
       194 -1.198679E-07  5.155122E-04 -8.439586E-06
       195  6.958012E-08 -2.298078E-03  8.304935E-03
       196 -2.973934E-07 -4.694484E-03  9.218952E-06
       197  6.243892E-08 -2.284482E-03 -8.309770E-03
       198  6.155296E-07  1.116393E-02 -1.771119E-05
       199  7.032375E-07  3.508906E-02 -6.604724E-02
       200 -1.432227E-06  5.286182E-02  1.552863E-05
       201  6.903966E-07  3.512390E-02  6.603971E-02
       202  1.506003E-06 -1.519960E-01 -2.593441E-05
       203  3.031818E-06 -6.337602E-01 -3.093896E-01
       204 -4.341963E-06  6.555907E-01  1.897244E-05
       205  6.762437E-07 -6.337016E-01  3.093813E-01
       206  6.411585E-06 -5.254581E-01 -2.656564E-05
       207  4.752380E-06 -1.173707E-01 -6.352533E-02
       208 -4.167364E-06  3.114547E-01  1.377760E-05
       209 -3.465908E-07 -1.173053E-01  6.352030E-02
       210  1.989302E-06  1.988229E-02 -1.195546E-05
       211 -4.513408E+00 -1.110061E+02  1.495982E+00
       212  1.846598E+00  8.802786E+01  2.387982E-01
       213 -1.968816E+00 -1.186383E+02 -2.857139E+00
       219 -2.209157E-08 -8.753878E-04 -3.013229E-06
       220  3.281069E-08 -4.104869E-04  8.112655E-04
       221 -1.939385E-07 -4.104666E-04 -1.022635E-05
       222 -1.978504E-08  1.274256E-04  7.522592E-06
       223  2.285181E-07 -4.103638E-04 -1.048544E-05
       224 -2.251505E-08 -4.103454E-04 -8.163238E-04
       225  8.828631E-08  1.031042E-03 -1.786671E-05
       226  1.624624E-07 -4.568828E-03 -1.662143E-02
       227  1.701586E-07 -4.584139E-03 -2.790277E-05
       228 -1.403950E-07 -9.389003E-03  1.990106E-05
       229 -7.194286E-08 -4.584115E-03 -2.880158E-05
       230  1.100501E-07 -4.596155E-03  1.660738E-02
       231  3.157137E-07  2.232789E-02 -3.878059E-05
       232  3.788325E-07  7.024739E-02  1.320766E-01
       233  1.156559E-06  7.020912E-02 -4.725513E-05
       234 -2.749221E-07  1.057236E-01  3.412290E-05
       235 -1.102905E-06  7.020914E-02 -4.907125E-05
       236  3.452470E-07  7.017846E-02 -1.321011E-01
       237  5.982252E-07 -3.039918E-01 -5.907259E-05
       238  6.109567E-07 -1.267401E+00  6.187613E-01
       239  4.118518E-06 -1.267468E+00 -6.010709E-05
       240 -5.769700E-07  1.311179E+00  4.058560E-05
       241 -4.017648E-06 -1.267468E+00 -6.319522E-05
       242  7.799863E-07 -1.267521E+00 -6.187927E-01
       243  1.195887E-06 -1.050912E+00 -6.377849E-05
       244  5.937578E-07 -2.346036E-01  1.270399E-01
       245  5.876846E-06 -2.346815E-01 -4.025503E-05
       246 -4.647202E-07  6.229069E-01  3.092708E-05
       247 -5.904188E-06 -2.346814E-01 -4.223610E-05
       248  9.951880E-07 -2.347428E-01 -1.270593E-01
       249  6.664079E-07  3.976606E-02 -2.696492E-05
       250  9.500751E-04 -2.040762E+02 -1.043074E+01
       251  1.279526E+00  6.735603E+01  3.153037E+00
       252  2.917884E-05  1.669009E+02  2.196404E+00
       253 -1.279575E+00  6.735410E+01  3.153044E+00
       254 -9.554843E-04 -1.987777E+02 -3.494521E-01

 displacements (vx,vy,vz) for set NALL and time  0.8000000E-02

         1  0.000000E+00  0.000000E+00  0.000000E+00
         2  0.000000E+00  0.000000E+00  0.000000E+00
         3  0.000000E+00  0.000000E+00  0.000000E+00
         4  0.000000E+00  0.000000E+00  0.000000E+00
         9  0.000000E+00  0.000000E+00  0.000000E+00
        10  0.000000E+00  0.000000E+00  0.000000E+00
        11  0.000000E+00  0.000000E+00  0.000000E+00
        12  0.000000E+00  0.000000E+00  0.000000E+00
        13  0.000000E+00  0.000000E+00  0.000000E+00
        14  0.000000E+00  0.000000E+00  0.000000E+00
        15  0.000000E+00  0.000000E+00  0.000000E+00
        16  0.000000E+00  0.000000E+00  0.000000E+00
        17  0.000000E+00  0.000000E+00  0.000000E+00
        18  0.000000E+00  0.000000E+00  0.000000E+00
        19  0.000000E+00  0.000000E+00  0.000000E+00
        20  0.000000E+00  0.000000E+00  0.000000E+00
        33 -2.160580E-05  5.472083E-05  7.015291E-05
        34 -1.001452E-05  1.685890E-04  1.272011E-04
        35 -7.863366E-06  3.392996E-04  1.643237E-04
        36 -1.816091E-06  5.312957E-04  1.805975E-04
        37  5.975661E-06  7.381535E-04  1.804878E-04
        38  1.209260E-05  9.387319E-04  1.617618E-04
        39  1.611983E-05  1.096010E-03  1.204321E-04
        40  1.082551E-05  1.209700E-03  4.267072E-05
        41  3.694136E-05  1.246903E-03 -8.152618E-06
        42  2.155002E-05  1.263327E-03 -2.974786E-05
        43 -4.940599E-06  1.110195E-03 -2.567927E-05
        44 -8.157123E-05  1.085778E-03 -1.602422E-04
        51  8.706050E-05  1.083577E-03 -1.606298E-04
        52  1.029393E-05  1.109983E-03 -2.596049E-05
        53 -1.631047E-05  1.262846E-03 -3.007696E-05
        54 -3.137194E-05  1.246831E-03 -8.131363E-06
        55 -5.636186E-06  1.209588E-03  4.312748E-05
        56 -1.153784E-05  1.095955E-03  1.210685E-04
        57 -8.255242E-06  9.386695E-04  1.624927E-04
        58 -2.968074E-06  7.381385E-04  1.812649E-04
        59  3.974549E-06  5.313012E-04  1.813728E-04
        60  9.220919E-06  3.393331E-04  1.650059E-04
        61  1.068962E-05  1.686280E-04  1.277223E-04
        62  2.182318E-05  5.480612E-05  7.043630E-05
        63  2.236503E-05  5.538662E-05 -7.189463E-05
        64  1.090515E-05  1.687266E-04 -1.307595E-04
        65  9.882355E-06  3.399635E-04 -1.694619E-04
        66  4.041198E-06  5.301644E-04 -1.874283E-04
        67 -2.240905E-06  7.399401E-04 -1.886448E-04
        68 -8.254215E-06  9.351245E-04 -1.722604E-04
        69 -9.789650E-06  1.098270E-03 -1.321229E-04
        70 -7.024708E-07  1.193836E-03 -5.510775E-05
        71 -3.728027E-05  1.264307E-03 -7.723311E-06
        72 -3.238033E-05  1.292812E-03  6.094691E-06
        73  3.818239E-05  1.061443E-03  5.318083E-06
        74  1.178720E-04  9.717188E-04  1.435811E-04
        78 -2.215045E-05  5.529690E-05 -7.161050E-05
        79 -1.024158E-05  1.686828E-04 -1.302403E-04
        80 -8.534335E-06  3.399155E-04 -1.687781E-04
        81 -1.909961E-06  5.301523E-04 -1.866556E-04
        82  5.236514E-06  7.399272E-04 -1.878675E-04
        83  1.204078E-05  9.351831E-04 -1.715441E-04
        84  1.435734E-05  1.098283E-03 -1.314717E-04
        85  5.793231E-06  1.193971E-03 -5.464644E-05
        86  4.287439E-05  1.264293E-03 -7.723459E-06
        87  3.742323E-05  1.293353E-03  5.589669E-06
        88 -3.281424E-05  1.061557E-03  5.231999E-06
        89 -1.126879E-04  9.740842E-04  1.434398E-04
        93  0.000000E+00  0.000000E+00  0.000000E+00
        94  0.000000E+00  0.000000E+00  0.000000E+00
        95  0.000000E+00  0.000000E+00  0.000000E+00
        96  0.000000E+00  0.000000E+00  0.000000E+00
        97  0.000000E+00  0.000000E+00  0.000000E+00
       103  8.298795E-08  6.378403E-05  6.894453E-05
       104  5.338964E-06  1.747847E-04  1.298862E-04
       105  3.305512E-07  1.760746E-04  1.307811E-04
       106 -4.681989E-06  1.747645E-04  1.296386E-04
       107  6.685525E-07  3.428705E-04  1.650343E-04
       108  2.872191E-06  5.333133E-04  1.833790E-04
       109  1.073388E-06  5.343937E-04  1.841192E-04
       110 -7.198921E-07  5.333113E-04  1.830030E-04
       111  1.506984E-06  7.349436E-04  1.818411E-04
       112 -4.477601E-06  9.319398E-04  1.656655E-04
       113  1.921315E-06  9.302148E-04  1.668476E-04
       114  8.318454E-06  9.319675E-04  1.653094E-04
       115  2.305776E-06  1.092383E-03  1.154488E-04
       116  3.254178E-06  1.196963E-03  5.131569E-05
       117  2.634597E-06  1.180077E-03  6.023482E-05
       118  1.989573E-06  1.197022E-03  5.110558E-05
       119  2.775368E-06  1.212769E-03 -1.060504E-05
       120 -2.243040E-05  1.256065E-03 -1.708791E-05
       121  2.794084E-06  1.232342E-03 -4.155269E-06
       122  2.784578E-05  1.256303E-03 -1.695485E-05
       123  2.615229E-06  1.139906E-03 -1.033173E-04
       124  8.836307E-05  1.007862E-03 -1.509878E-04
       125  3.061842E-06  1.025521E-03 -1.562537E-04
       126 -8.253308E-05  1.008828E-03 -1.505469E-04
       132  3.812340E-07  4.178879E-05 -8.569832E-07
       133 -4.890250E-06  1.652235E-04  5.908928E-05
       134  5.857414E-07  1.675345E-04 -1.627013E-06
       135  5.926469E-06  1.652250E-04 -6.252427E-05
       136  8.618300E-07  3.332225E-04 -2.642495E-06
       137  2.857411E-07  5.335493E-04  8.640363E-05
       138  1.437938E-06  5.345781E-04 -3.268553E-06
       139  2.211624E-06  5.332451E-04 -9.302772E-05
       140  1.660480E-06  7.379755E-04 -4.383664E-06
       141  5.201332E-06  9.380721E-04  7.336561E-05
       142  2.266519E-06  9.407703E-04 -3.848451E-06
       143 -9.075710E-07  9.352588E-04 -8.267840E-05
       144  1.678334E-06  1.106981E-03 -5.558475E-06
       145  1.226566E-05  1.237809E-03  1.971694E-05
       146 -5.430885E-09  1.239487E-03 -7.932932E-06
       147 -8.903225E-06  1.233414E-03 -3.352375E-05
       148  6.209638E-06  1.236421E-03 -8.536253E-06
       149 -1.861299E-05  1.221934E-03 -2.501661E-05
       150  9.770310E-06  1.268687E-03 -6.944079E-06
       151  2.269695E-05  1.228846E-03  6.390737E-06
       152 -9.700336E-06  1.124967E-03 -6.884215E-06
       153  8.426469E-05  1.372506E-03 -7.677031E-05
       154 -1.447915E-05  1.321446E-03 -8.150124E-06
       155 -8.140574E-05  1.341764E-03  5.490232E-05
       161  8.081362E-08  6.423296E-05 -7.042998E-05
       162  5.457763E-06  1.751792E-04 -1.328259E-04
       163  3.282504E-07  1.768024E-04 -1.337303E-04
       164 -4.808936E-06  1.751568E-04 -1.325783E-04
       165  6.611813E-07  3.431535E-04 -1.694976E-04
       166  2.850977E-06  5.339543E-04 -1.893195E-04
       167  1.069851E-06  5.365572E-04 -1.895713E-04
       168 -7.154733E-07  5.339485E-04 -1.889451E-04
       169  1.493287E-06  7.340235E-04 -1.900831E-04
       170 -4.159166E-06  9.337513E-04 -1.746747E-04
       171  1.921093E-06  9.382468E-04 -1.765197E-04
       172  7.973331E-06  9.337788E-04 -1.743206E-04
       173  2.283329E-06  1.088367E-03 -1.262243E-04
       174  4.367634E-06  1.211643E-03 -6.516869E-05
       175  2.646429E-06  1.219385E-03 -7.136024E-05
       176  8.415142E-07  1.211709E-03 -6.497422E-05
       177  2.734792E-06  1.216929E-03 -7.321484E-06
       178 -2.627340E-05  1.245727E-03 -2.901902E-07
       179  2.851444E-06  1.255296E-03 -1.765800E-05
       180  3.164225E-05  1.246013E-03 -4.292539E-07
       181  2.554417E-06  1.117823E-03  8.774390E-05
       182  8.779327E-05  1.047430E-03  1.309337E-04
       183  3.290574E-06  9.197488E-04  1.523324E-04
       184 -8.188393E-05  1.048420E-03  1.302794E-04
       190 -1.202147E-07  4.178708E-05 -5.751801E-07
       191 -5.254438E-06  1.652013E-04 -6.200278E-05
       192  7.528762E-08  1.675291E-04 -1.109653E-06
       193  5.568144E-06  1.652394E-04  5.961236E-05
       194  5.348930E-07  3.332175E-04 -1.946100E-06
       195 -1.205672E-07  5.332309E-04 -9.226225E-05
       196  6.077288E-07  5.345660E-04 -2.503543E-06
       197  1.818559E-06  5.335477E-04  8.717160E-05
       198  1.424373E-06  7.379681E-04 -3.598392E-06
       199  4.561790E-06  9.352840E-04 -8.198626E-05
       200  1.272472E-06  9.407476E-04 -3.231261E-06
       201 -1.520436E-06  9.380229E-04  7.406239E-05
       202  3.010393E-06  1.106972E-03 -4.814350E-06
       203  1.367214E-05  1.233439E-03 -3.313254E-05
       204  4.447453E-06  1.239449E-03 -7.443723E-06
       205 -7.451473E-06  1.237756E-03  2.012008E-05
       206 -5.493382E-08  1.236420E-03 -8.635258E-06
       207 -1.849362E-05  1.229159E-03  5.635761E-06
       208 -6.319221E-06  1.268601E-03 -8.632884E-06