    1C
    1UUSER                                                              
    1UDATE              12.july.2018                                    
    1UTIME              16:59:27                                        
    1UHOST                                                              
    1UPGM               CalculiX                                        
    1UVERSION           Version 2.13                             
    1UCOMPILETIME       jue jun 14 00:40:39 CEST 2018                    
    1UDIR                                                               
    1UDBN                                                               
    1UMAT    1EL                                                        
    2C                            81                                     1
 -1         5 0.00000E+00 0.00000E+00 8.00000E+00
 -1         6 1.00000E+00 0.00000E+00 8.00000E+00
 -1         7 1.00000E+00 1.00000E+00 8.00000E+00
 -1         8 0.00000E+00 1.00000E+00 8.00000E+00
 -1        21 2.50000E-01 0.00000E+00 8.00000E+00
 -1        22 5.00000E-01 0.00000E+00 8.00000E+00
 -1        23 7.50000E-01 0.00000E+00 8.00000E+00
 -1        24 1.00000E+00 2.50000E-01 8.00000E+00
 -1        25 1.00000E+00 5.00000E-01 8.00000E+00
 -1        26 1.00000E+00 7.50000E-01 8.00000E+00
 -1        27 7.50000E-01 1.00000E+00 8.00000E+00
 -1        28 5.00000E-01 1.00000E+00 8.00000E+00
 -1        29 2.50000E-01 1.00000E+00 8.00000E+00
 -1        30 0.00000E+00 7.50000E-01 8.00000E+00
 -1        31 0.00000E+00 5.00000E-01 8.00000E+00
 -1        32 0.00000E+00 2.50000E-01 8.00000E+00
 -1        44 1.00000E+00 0.00000E+00 6.00000E+00
 -1        45 1.00000E+00 0.00000E+00 6.50000E+00
 -1        46 1.00000E+00 0.00000E+00 7.00000E+00
 -1        47 1.00000E+00 0.00000E+00 7.50000E+00
 -1        48 0.00000E+00 0.00000E+00 7.50000E+00
 -1        49 0.00000E+00 0.00000E+00 7.00000E+00
 -1        50 0.00000E+00 0.00000E+00 6.50000E+00
 -1        51 0.00000E+00 0.00000E+00 6.00000E+00
 -1        74 1.00000E+00 1.00000E+00 6.00000E+00
 -1        75 1.00000E+00 1.00000E+00 6.50000E+00
 -1        76 1.00000E+00 1.00000E+00 7.00000E+00
 -1        77 1.00000E+00 1.00000E+00 7.50000E+00
 -1        89 0.00000E+00 1.00000E+00 6.00000E+00
 -1        90 0.00000E+00 1.00000E+00 6.50000E+00
 -1        91 0.00000E+00 1.00000E+00 7.00000E+00
 -1        92 0.00000E+00 1.00000E+00 7.50000E+00
 -1        98 5.00000E-01 2.50000E-01 8.00000E+00
 -1        99 2.50000E-01 5.00000E-01 8.00000E+00
 -1       100 5.00000E-01 5.00000E-01 8.00000E+00
 -1       101 7.50000E-01 5.00000E-01 8.00000E+00
 -1       102 5.00000E-01 7.50000E-01 8.00000E+00
 -1       124 2.50000E-01 0.00000E+00 6.00000E+00
 -1       125 5.00000E-01 0.00000E+00 6.00000E+00
 -1       126 7.50000E-01 0.00000E+00 6.00000E+00
 -1       127 5.00000E-01 0.00000E+00 6.50000E+00
 -1       128 2.50000E-01 0.00000E+00 7.00000E+00
 -1       129 5.00000E-01 0.00000E+00 7.00000E+00
 -1       130 7.50000E-01 0.00000E+00 7.00000E+00
 -1       131 5.00000E-01 0.00000E+00 7.50000E+00
 -1       153 1.00000E+00 2.50000E-01 6.00000E+00
 -1       154 1.00000E+00 5.00000E-01 6.00000E+00
 -1       155 1.00000E+00 7.50000E-01 6.00000E+00
 -1       156 1.00000E+00 5.00000E-01 6.50000E+00
 -1       157 1.00000E+00 2.50000E-01 7.00000E+00
 -1       158 1.00000E+00 5.00000E-01 7.00000E+00
 -1       159 1.00000E+00 7.50000E-01 7.00000E+00
 -1       160 1.00000E+00 5.00000E-01 7.50000E+00
 -1       182 7.50000E-01 1.00000E+00 6.00000E+00
 -1       183 5.00000E-01 1.00000E+00 6.00000E+00
 -1       184 2.50000E-01 1.00000E+00 6.00000E+00
 -1       185 5.00000E-01 1.00000E+00 6.50000E+00
 -1       186 7.50000E-01 1.00000E+00 7.00000E+00
 -1       187 5.00000E-01 1.00000E+00 7.00000E+00
 -1       188 2.50000E-01 1.00000E+00 7.00000E+00
 -1       189 5.00000E-01 1.00000E+00 7.50000E+00
 -1       211 0.00000E+00 7.50000E-01 6.00000E+00
 -1       212 0.00000E+00 5.00000E-01 6.00000E+00
 -1       213 0.00000E+00 2.50000E-01 6.00000E+00
 -1       214 0.00000E+00 5.00000E-01 6.50000E+00
 -1       215 0.00000E+00 7.50000E-01 7.00000E+00
 -1       216 0.00000E+00 5.00000E-01 7.00000E+00
 -1       217 0.00000E+00 2.50000E-01 7.00000E+00
 -1       218 0.00000E+00 5.00000E-01 7.50000E+00
 -1       250 5.00000E-01 2.50000E-01 6.00000E+00
 -1       251 2.50000E-01 5.00000E-01 6.00000E+00
 -1       252 5.00000E-01 5.00000E-01 6.00000E+00
 -1       253 7.50000E-01 5.00000E-01 6.00000E+00
 -1       254 5.00000E-01 7.50000E-01 6.00000E+00
 -1       255 5.00000E-01 5.00000E-01 6.50000E+00
 -1       256 5.00000E-01 2.50000E-01 7.00000E+00
 -1       257 2.50000E-01 5.00000E-01 7.00000E+00
 -1       258 5.00000E-01 5.00000E-01 7.00000E+00
 -1       259 7.50000E-01 5.00000E-01 7.00000E+00
 -1       260 5.00000E-01 7.50000E-01 7.00000E+00
 -1       261 5.00000E-01 5.00000E-01 7.50000E+00
 -3
    3C                             8                                     1
 -1        25    4    0    1
 -2        51       125       252       212        49       129       258       216       124       250
 -2       251       213        50       127       255       214       128       256       257       217
 -1        26    4    0    1
 -2       125        44       154       252       129        46       158       258       126       153
 -2       253       250       127        45       156       255       130       157       259       256
 -1        27    4    0    1
 -2       212       252       183        89       216       258       187        91       251       254
 -2       184       211       214       255       185        90       257       260       188       215
 -1        28    4    0    1
 -2       252       154        74       183       258       158        76       187       253       155
 -2       182       254       255       156        75       185       259       159       186       260
 -1        29    4    0    1
 -2        49       129       258       216         5        22       100        31       128       256
 -2       257       217        48       131       261       218        21        98        99        32
 -1        30    4    0    1
 -2       129        46       158       258        22         6        25       100       130       157
 -2       259       256       131        47       160       261        23        24       101        98
 -1        31    4    0    1
 -2       216       258       187        91        31       100        28         8       257       260
 -2       188       215       218       261       189        92        99       102        29        30
 -1        32    4    0    1
 -2       258       158        76       187       100        25         7        28       259       159
 -2       186       260       261       160        77       189       101        26        27       102
 -3
    1PSTEP                         1           1           1          
  100CL  101 4.00000E-03          81                     1    1           1
 -4  DISP        4    1
 -5  D1          1    2    1    0
 -5  D2          1    2    2    0
 -5  D3          1    2    3    0
 -5  ALL         1    2    0    0    1ALL
 -1         5 0.00000E+00 0.00000E+00 0.00000E+00
 -1         6 0.00000E+00 0.00000E+00 0.00000E+00
 -1         7 0.00000E+00 0.00000E+00 0.00000E+00
 -1         8 0.00000E+00 0.00000E+00 0.00000E+00
 -1        21 0.00000E+00 0.00000E+00 0.00000E+00
 -1        22 0.00000E+00 0.00000E+00 0.00000E+00
 -1        23 0.00000E+00 0.00000E+00 0.00000E+00
 -1        24 0.00000E+00 0.00000E+00 0.00000E+00
 -1        25 0.00000E+00 0.00000E+00 0.00000E+00
 -1        26 0.00000E+00 0.00000E+00 0.00000E+00
 -1        27 0.00000E+00 0.00000E+00 0.00000E+00
 -1        28 0.00000E+00 0.00000E+00 0.00000E+00
 -1        29 0.00000E+00 0.00000E+00 0.00000E+00
 -1        30 0.00000E+00 0.00000E+00 0.00000E+00
 -1        31 0.00000E+00 0.00000E+00 0.00000E+00
 -1        32 0.00000E+00 0.00000E+00 0.00000E+00
 -1        44 8.38661E-05-2.72088E-03 2.70789E-04
 -1        45-1.85639E-05-2.18069E-03 5.81030E-04
 -1        46-5.50802E-05-1.64506E-03 6.95097E-04
 -1        47 9.24853E-05-6.97193E-04 4.79398E-04
 -1        48-9.24855E-05-6.97193E-04 4.79398E-04
 -1        49 5.50824E-05-1.64506E-03 6.95098E-04
 -1        50 1.85625E-05-2.18069E-03 5.81022E-04
 -1        51-8.38496E-05-2.72086E-03 2.70762E-04
 -1        74 1.13961E-06-2.97405E-03-3.01070E-04
 -1        75 5.43358E-05-2.27024E-03-6.10528E-04
 -1        76 2.13834E-05-1.64605E-03-7.16294E-04
 -1        77-1.22961E-04-6.43661E-04-4.91091E-04
 -1        89-1.15501E-06-2.97403E-03-3.01043E-04
 -1        90-5.43337E-05-2.27024E-03-6.10521E-04
 -1        91-2.13854E-05-1.64604E-03-7.16294E-04
 -1        92 1.22961E-04-6.43661E-04-4.91092E-04
 -1        98 0.00000E+00 0.00000E+00 0.00000E+00
 -1        99 0.00000E+00 0.00000E+00 0.00000E+00
 -1       100 0.00000E+00 0.00000E+00 0.00000E+00
 -1       101 0.00000E+00 0.00000E+00 0.00000E+00
 -1       102 0.00000E+00 0.00000E+00 0.00000E+00
 -1       124-1.33130E-05-2.49523E-03 2.22148E-04
 -1       125 3.33440E-09-2.75033E-03 2.59304E-04
 -1       126 1.33233E-05-2.49524E-03 2.22159E-04
 -1       127-5.17520E-10-2.17835E-03 5.51181E-04
 -1       128 2.47690E-05-1.68694E-03 7.30488E-04
 -1       129 1.90424E-10-1.61483E-03 7.26726E-04
 -1       130-2.47677E-05-1.68694E-03 7.30489E-04
 -1       131 7.40574E-11-7.06589E-04 4.63792E-04
 -1       153-3.87714E-05-3.13758E-03 1.19684E-04
 -1       154-2.27869E-05-2.63862E-03-1.50173E-05
 -1       155 5.54495E-05-3.21911E-03-1.63577E-04
 -1       156-1.54258E-05-2.28167E-03-3.36185E-05
 -1       157 5.65426E-06-1.50693E-03 2.79393E-04
 -1       158 2.85319E-05-1.60686E-03-9.09892E-06
 -1       159 3.30953E-05-1.52765E-03-2.93326E-04
 -1       160 1.38910E-05-6.30054E-04 7.77735E-06
 -1       182-1.23600E-05-2.40497E-03-2.60159E-04
 -1       183-2.82221E-09-2.99296E-03-3.06860E-04
 -1       184 1.23509E-05-2.40496E-03-2.60149E-04
 -1       185 7.49713E-10-2.31407E-03-5.67392E-04
 -1       186 2.03582E-05-1.84690E-03-7.68999E-04
 -1       187-4.56197E-12-1.78153E-03-7.71342E-04
 -1       188-2.03592E-05-1.84690E-03-7.68998E-04
 -1       189-2.06504E-11-7.44234E-04-4.85046E-04
 -1       211-5.54587E-05-3.21911E-03-1.63567E-04
 -1       212 2.27876E-05-2.63861E-03-1.50174E-05
 -1       213 3.87810E-05-3.13757E-03 1.19673E-04
 -1       214 1.54263E-05-2.28167E-03-3.36186E-05
 -1       215-3.30957E-05-1.52765E-03-2.93325E-04
 -1       216-2.85319E-05-1.60686E-03-9.09908E-06
 -1       217-5.65349E-06-1.50693E-03 2.79392E-04
 -1       218-1.38910E-05-6.30054E-04 7.77727E-06
 -1       250 2.81312E-09-2.80791E-03 3.17851E-05
 -1       251-4.35063E-06-2.15229E-03 1.42240E-05
 -1       252 1.71472E-10-2.20238E-03-3.78088E-06
 -1       253 4.35098E-06-2.15229E-03 1.42241E-05
 -1       254-2.32885E-09-2.94711E-03-1.54932E-04
 -1       255 1.19231E-10-2.38121E-03-2.20295E-05
 -1       256-1.67159E-10-1.45415E-03 3.23223E-04
 -1       257-1.63910E-05-1.61593E-03-1.54107E-05
 -1       258 7.70641E-11-1.48318E-03-1.43824E-05
 -1       259 1.63911E-05-1.61593E-03-1.54107E-05
 -1       260 3.17356E-10-1.52759E-03-3.36663E-04
 -1       261 2.10039E-11-6.82692E-04 2.97291E-06
 -3
    1PSTEP                         2           2           1          
  100CL  102 8.00000E-03          81                     1    2           1
 -4  DISP        4    1
 -5  D1          1    2    1    0
 -5  D2          1    2    2    0
 -5  D3          1    2    3    0
 -5  ALL         1    2    0    0    1ALL
 -1         5 0.00000E+00 0.00000E+00 0.00000E+00
 -1         6 0.00000E+00 0.00000E+00 0.00000E+00
 -1         7 0.00000E+00 0.00000E+00 0.00000E+00
 -1         8 0.00000E+00 0.00000E+00 0.00000E+00
 -1        21 0.00000E+00 0.00000E+00 0.00000E+00
 -1        22 0.00000E+00 0.00000E+00 0.00000E+00
 -1        23 0.00000E+00 0.00000E+00 0.00000E+00
 -1        24 0.00000E+00 0.00000E+00 0.00000E+00
 -1        25 0.00000E+00 0.00000E+00 0.00000E+00
 -1        26 0.00000E+00 0.00000E+00 0.00000E+00
 -1        27 0.00000E+00 0.00000E+00 0.00000E+00
 -1        28 0.00000E+00 0.00000E+00 0.00000E+00
 -1        29 0.00000E+00 0.00000E+00 0.00000E+00
 -1        30 0.00000E+00 0.00000E+00 0.00000E+00
 -1        31 0.00000E+00 0.00000E+00 0.00000E+00
 -1        32 0.00000E+00 0.00000E+00 0.00000E+00
 -1        44-6.80418E-05 9.98185E-04-1.53173E-04
 -1        45-5.21861E-06 7.85787E-04-2.44189E-04
 -1        46 2.23606E-05 6.14535E-04-2.66145E-04
 -1        47-3.49118E-05 2.61871E-04-1.82659E-04
 -1        48 3.49656E-05 2.61925E-04-1.82824E-04
 -1        49-2.27972E-05 6.14097E-04-2.66284E-04
 -1        50 5.62621E-06 7.86195E-04-2.42803E-04
 -1        51 6.50039E-05 9.95140E-04-1.48146E-04
 -1        74 4.79034E-05 1.06874E-03 1.42318E-04
 -1        75-1.13143E-05 8.10810E-04 2.30340E-04
 -1        76-1.66234E-05 5.81892E-04 2.55663E-04
 -1        77 3.45253E-05 2.58653E-04 1.78901E-04
 -1        89-4.48644E-05 1.06570E-03 1.37291E-04
 -1        90 1.09096E-05 8.11218E-04 2.28953E-04
 -1        91 1.70611E-05 5.81455E-04 2.55801E-04
 -1        92-3.45786E-05 2.58707E-04 1.79064E-04
 -1        98 0.00000E+00 0.00000E+00 0.00000E+00
 -1        99 0.00000E+00 0.00000E+00 0.00000E+00
 -1       100 0.00000E+00 0.00000E+00 0.00000E+00
 -1       101 0.00000E+00 0.00000E+00 0.00000E+00
 -1       102 0.00000E+00 0.00000E+00 0.00000E+00
 -1       124 2.92803E-05 9.37645E-04-1.26537E-04
 -1       125-4.14835E-07 1.03230E-03-1.51255E-04
 -1       126-3.09643E-05 9.39382E-04-1.28300E-04
 -1       127 6.60703E-08 8.14033E-04-2.24964E-04
 -1       128-1.08388E-05 6.25874E-04-2.82317E-04
 -1       129 1.95356E-08 5.93664E-04-2.80777E-04
 -1       130 1.06276E-05 6.26030E-04-2.82485E-04
 -1       131-1.43082E-08 2.68405E-04-1.84816E-04
 -1       153 2.14853E-05 1.14018E-03-6.63545E-05
 -1       154 1.94037E-05 9.62231E-04-3.72186E-06
 -1       155-2.02459E-05 1.15587E-03 5.10626E-05
 -1       156 9.95506E-06 8.38717E-04-5.06818E-06
 -1       157 5.74760E-07 5.54738E-04-1.17362E-04
 -1       158-1.46762E-06 5.77353E-04-3.15908E-06
 -1       159 1.08310E-05 5.40650E-04 1.09937E-04
 -1       160-4.84664E-07 2.34265E-04 8.19779E-07
 -1       182 3.63734E-05 9.13007E-04 1.18954E-04
 -1       183 4.16716E-07 1.05667E-03 1.36902E-04
 -1       184-3.46871E-05 9.11270E-04 1.17191E-04
 -1       185-6.52603E-08 8.08520E-04 2.07243E-04
 -1       186-1.09691E-05 5.93590E-04 2.73406E-04
 -1       187-1.86008E-08 5.19859E-04 2.71578E-04
 -1       188 1.11818E-05 5.93434E-04 2.73238E-04
 -1       189 1.44794E-08 2.45559E-04 1.79451E-04
 -1       211 2.19790E-05 1.15418E-03 4.93032E-05
 -1       212-1.94052E-05 9.61400E-04-3.72058E-06
 -1       213-2.32191E-05 1.13849E-03-6.45940E-05
 -1       214-9.95319E-06 8.38847E-04-5.06832E-06
 -1       215-1.06749E-05 5.40439E-04 1.09768E-04
 -1       216 1.46771E-06 5.77393E-04-3.15963E-06
 -1       217-7.30282E-07 5.54526E-04-1.17193E-04
 -1       218 4.85047E-07 2.34236E-04 8.19305E-07
 -1       250-3.83352E-07 1.07293E-03-6.77079E-05
 -1       251-7.45403E-06 8.14456E-04-1.19187E-05
 -1       252 1.41938E-09 8.89714E-04-9.01517E-06
 -1       253 7.45494E-06 8.15224E-04-1.19176E-05
 -1       254 3.85770E-07 1.07980E-03 5.35408E-05
 -1       255 2.18957E-10 8.58678E-04-7.92094E-06
 -1       256 6.08431E-08 5.43834E-04-1.28012E-04
 -1       257-1.79013E-06 5.89566E-04-3.45198E-06
 -1       258 6.81708E-10 5.46815E-04-4.86143E-06
 -1       259 1.79082E-06 5.89445E-04-3.45211E-06
 -1       260-5.96910E-08 5.09184E-04 1.18888E-04
 -1       261 6.92052E-11 2.43390E-04 1.51812E-06
 -3
    1PSTEP                         3           3           1          
  100CL  103 1.20000E-02          81                     1    3           1
 -4  DISP        4    1
 -5  D1          1    2    1    0
 -5  D2          1    2    2    0
 -5  D3          1    2    3    0
 -5  ALL         1    2    0    0    1ALL
 -1         5 0.00000E+00 0.00000E+00 0.00000E+00
 -1         6 0.00000E+00 0.00000E+00 0.00000E+00
 -1         7 0.00000E+00 0.00000E+00 0.00000E+00
 -1         8 0.00000E+00 0.00000E+00 0.00000E+00
 -1        21 0.00000E+00 0.00000E+00 0.00000E+00
 -1        22 0.00000E+00 0.00000E+00 0.00000E+00
 -1        23 0.00000E+00 0.00000E+00 0.00000E+00
 -1        24 0.00000E+00 0.00000E+00 0.00000E+00
 -1        25 0.00000E+00 0.00000E+00 0.00000E+00
 -1        26 0.00000E+00 0.00000E+00 0.00000E+00
 -1        27 0.00000E+00 0.00000E+00 0.00000E+00
 -1        28 0.00000E+00 0.00000E+00 0.00000E+00
 -1        29 0.00000E+00 0.00000E+00 0.00000E+00
 -1        30 0.00000E+00 0.00000E+00 0.00000E+00
 -1        31 0.00000E+00 0.00000E+00 0.00000E+00
 -1        32 0.00000E+00 0.00000E+00 0.00000E+00
 -1        44 6.64392E-05-9.92906E-04 9.29993E-05
 -1        45 1.27976E-05-8.04617E-04 2.32725E-04
 -1        46-3.36774E-05-6.48939E-04 2.60907E-04
 -1        47 3.45126E-05-2.74850E-04 1.79977E-04
 -1        48-3.41713E-05-2.74508E-04 1.78933E-04
 -1        49 3.08933E-05-6.51723E-04 2.60026E-04
 -1        50-1.02040E-05-8.02029E-04 2.41579E-04
 -1        51-8.58302E-05-1.01230E-03 1.25063E-04
 -1        74-6.88744E-05-1.06300E-03-1.04896E-04
 -1        75 9.22013E-06-8.42346E-04-2.36676E-04
 -1        76 1.99602E-05-6.26612E-04-2.62075E-04
 -1        77-4.09094E-05-2.63747E-04-1.82149E-04
 -1        89 8.82843E-05-1.08243E-03-1.36999E-04
 -1        90-1.18076E-05-8.39747E-04-2.45537E-04
 -1        91-1.71698E-05-6.29405E-04-2.61194E-04
 -1        92 4.05679E-05-2.63406E-04-1.81107E-04
 -1        98 0.00000E+00 0.00000E+00 0.00000E+00
 -1        99 0.00000E+00 0.00000E+00 0.00000E+00
 -1       100 0.00000E+00 0.00000E+00 0.00000E+00
 -1       101 0.00000E+00 0.00000E+00 0.00000E+00
 -1       102 0.00000E+00 0.00000E+00 0.00000E+00
 -1       124-5.20057E-05-9.57735E-04 9.02889E-05
 -1       125-2.66085E-06-1.03790E-03 1.61529E-04
 -1       126 4.12442E-05-9.46667E-04 7.90417E-05
 -1       127 4.21619E-07-8.47925E-04 2.12859E-04
 -1       128 1.74596E-05-6.49789E-04 2.82553E-04
 -1       129 1.22643E-07-6.10841E-04 2.72924E-04
 -1       130-1.88085E-05-6.48798E-04 2.81481E-04
 -1       131-9.13535E-08-2.80679E-04 1.87062E-04
 -1       153-2.81013E-05-1.13196E-03 2.74340E-05
 -1       154-1.99428E-05-9.17986E-04-7.90188E-06
 -1       155 1.40497E-05-1.14542E-03-4.71255E-05
 -1       156-1.00692E-05-8.75350E-04-7.20725E-06
 -1       157-2.28573E-06-5.79272E-04 1.10181E-04
 -1       158 6.49954E-06-6.00213E-04-2.43428E-06
 -1       159-1.78146E-07-5.73563E-04-1.11035E-04
 -1       160 2.73836E-06-2.52111E-04-6.65971E-07
 -1       182-5.92151E-05-9.09742E-04-8.56433E-05
 -1       183 2.66705E-06-1.11433E-03-1.75328E-04
 -1       184 6.99901E-05-9.20831E-04-9.69114E-05
 -1       185-4.20569E-07-8.66953E-04-2.11455E-04
 -1       186 1.62108E-05-6.59553E-04-2.88318E-04
 -1       187-1.18932E-07-6.00425E-04-2.78387E-04
 -1       188-1.48546E-05-6.60547E-04-2.89390E-04
 -1       189 9.15928E-08-2.73994E-04-1.88258E-04
 -1       211-2.98048E-06-1.15620E-03-5.83743E-05
 -1       212 1.99304E-05-9.23311E-04-7.88792E-06
 -1       213 1.70265E-05-1.14273E-03 3.86890E-05
 -1       214 1.00752E-05-8.74510E-04-7.20669E-06
 -1       215 1.17154E-06-5.74917E-04-1.12111E-04
 -1       216-6.50115E-06-5.99968E-04-2.43603E-06
 -1       217 1.29439E-06-5.80622E-04 1.11252E-04
 -1       218-2.73707E-06-2.52294E-04-6.66264E-07
 -1       250-2.45644E-06-1.10241E-03 7.28020E-05
 -1       251 4.78895E-06-8.31139E-04 2.43697E-06
 -1       252 2.45889E-09-9.42561E-04 3.19904E-07
 -1       253-4.79102E-06-8.26221E-04 2.43597E-06
 -1       254 2.46355E-06-1.13855E-03-8.84271E-05
 -1       255 5.00381E-10-8.86925E-04-2.95269E-06
 -1       256 3.85699E-07-5.71891E-04 1.17454E-04
 -1       257-2.03146E-06-6.20602E-04-2.84832E-06
 -1       258 1.43492E-09-5.90241E-04-2.15211E-06
 -1       259 2.03179E-06-6.21372E-04-2.84888E-06
 -1       260-3.82858E-07-5.67005E-04-1.20719E-04
 -1       261 3.86758E-10-2.57293E-04-8.55997E-07
 -3
    1PSTEP                         4           4           1          
  100CL  104 1.60000E-02          81                     1    4           1
 -4  DISP        4    1
 -5  D1          1    2    1    0
 -5  D2          1    2    2    0
 -5  D3          1    2    3    0
 -5  ALL         1    2    0    0    1ALL
 -1         5 0.00000E+00 0.00000E+00 0.00000E+00
 -1         6 0.00000E+00 0.00000E+00 0.00000E+00
 -1         7 0.00000E+00 0.00000E+00 0.00000E+00
 -1         8 0.00000E+00 0.00000E+00 0.00000E+00
 -1        21 0.00000E+00 0.00000E+00 0.00000E+00
 -1        22 0.00000E+00 0.00000E+00 0.00000E+00
 -1        23 0.00000E+00 0.00000E+00 0.00000E+00
 -1        24 0.00000E+00 0.00000E+00 0.00000E+00
 -1        25 0.00000E+00 0.00000E+00 0.00000E+00
 -1        26 0.00000E+00 0.00000E+00 0.00000E+00
 -1        27 0.00000E+00 0.00000E+00 0.00000E+00
 -1        28 0.00000E+00 0.00000E+00 0.00000E+00
 -1        29 0.00000E+00 0.00000E+00 0.00000E+00
 -1        30 0.00000E+00 0.00000E+00 0.00000E+00
 -1        31 0.00000E+00 0.00000E+00 0.00000E+00
 -1        32 0.00000E+00 0.00000E+00 0.00000E+00
 -1        44-7.55906E-05 8.11138E-04-1.13388E-04
 -1        45 8.58166E-08 6.40837E-04-2.00504E-04
 -1        46 2.16236E-05 5.12275E-04-2.06591E-04
 -1        47-2.75102E-05 2.14148E-04-1.41738E-04
 -1        48 2.76810E-05 2.14317E-04-1.42255E-04
 -1        49-2.30158E-05 5.10871E-04-2.07028E-04
 -1        50 1.18210E-06 6.42156E-04-1.96113E-04
 -1        51 6.59655E-05 8.01448E-04-9.74378E-05
 -1        74 3.38842E-05 9.23313E-04 1.38634E-04
 -1        75-8.17082E-06 6.50666E-04 2.00659E-04
 -1        76-1.33991E-05 5.06184E-04 2.04041E-04
 -1        77 3.00866E-05 2.05890E-04 1.41388E-04
 -1        89-2.43950E-05 9.13785E-04 1.22908E-04
 -1        90 6.88605E-06 6.51932E-04 1.96313E-04
 -1        91 1.47603E-05 5.04822E-04 2.04479E-04
 -1        92-3.02525E-05 2.06061E-04 1.41906E-04
 -1        98 0.00000E+00 0.00000E+00 0.00000E+00
 -1        99 0.00000E+00 0.00000E+00 0.00000E+00
 -1       100 0.00000E+00 0.00000E+00 0.00000E+00
 -1       101 0.00000E+00 0.00000E+00 0.00000E+00
 -1       102 0.00000E+00 0.00000E+00 0.00000E+00
 -1       124 3.12578E-05 7.53301E-04-6.13357E-05
 -1       125-1.32081E-06 8.41314E-04-1.36530E-04
 -1       126-3.65986E-05 7.58835E-04-6.69420E-05
 -1       127 2.02592E-07 6.65367E-04-1.79037E-04
 -1       128-1.13895E-05 5.17672E-04-2.31723E-04
 -1       129 5.40074E-08 4.88670E-04-2.22981E-04
 -1       130 1.07075E-05 5.18173E-04-2.32253E-04
 -1       131-4.53371E-08 2.16861E-04-1.44045E-04
 -1       153 1.67584E-05 9.44010E-04-4.05121E-05
 -1       154 1.16676E-05 7.80893E-04 4.23758E-06
 -1       155-2.60635E-05 9.82260E-04 2.86582E-05
 -1       156 5.05875E-06 6.99177E-04 4.62093E-06
 -1       157-2.07668E-06 4.53608E-04-8.85444E-05
 -1       158-3.38446E-06 4.71895E-04-1.43497E-06
 -1       159 2.33368E-06 4.55030E-04 9.23304E-05
 -1       160-1.69537E-06 1.93496E-04-2.52058E-06
 -1       182 2.63752E-05 7.54940E-04 8.63972E-05
 -1       183 1.29404E-06 8.62175E-04 1.10982E-04
 -1       184-2.11160E-05 7.49507E-04 8.08847E-05
 -1       185-2.12846E-07 6.82884E-04 1.70303E-04
 -1       186-9.56877E-06 5.25846E-04 2.29336E-04
 -1       187-6.27169E-08 4.74131E-04 2.26859E-04
 -1       188 1.02249E-05 5.25360E-04 2.28811E-04
 -1       189 4.56856E-08 2.13678E-04 1.46411E-04
 -1       211 3.14874E-05 9.76975E-04 2.31381E-05
 -1       212-1.16590E-05 7.78290E-04 4.20610E-06
 -1       213-2.22339E-05 9.38661E-04-3.49718E-05
 -1       214-5.07514E-06 6.99579E-04 4.62756E-06
 -1       215-1.85068E-06 4.54377E-04 9.18075E-05
 -1       216 3.38495E-06 4.72029E-04-1.42819E-06
 -1       217 1.57717E-06 4.52932E-04-8.79994E-05
 -1       218 1.69208E-06 1.93405E-04-2.52306E-06
 -1       250-1.22358E-06 8.72218E-04-5.34936E-05
 -1       251-4.24475E-06 6.31446E-04-7.78431E-06
 -1       252-6.14270E-09 6.98573E-04-1.72109E-06
 -1       253 4.23747E-06 6.33856E-04-7.77130E-06
 -1       254 1.19798E-06 8.83463E-04 6.20715E-05
 -1       255-7.33844E-09 7.14570E-04-1.32375E-06
 -1       256 1.87648E-07 4.41867E-04-9.90213E-05
 -1       257 1.13474E-06 4.86330E-04 9.15555E-07
 -1       258-3.73206E-10 4.47417E-04-4.81074E-08
 -1       259-1.13354E-06 4.85945E-04 9.13146E-07
 -1       260-1.90600E-07 4.33845E-04 9.57250E-05
 -1       261-1.59224E-09 2.02114E-04 6.54209E-07
 -3
    1PSTEP                         5           5           1          
  100CL  105 2.00000E-02          81                     1    5           1
 -4  DISP        4    1
 -5  D1          1    2    1    0
 -5  D2          1    2    2    0
 -5  D3          1    2    3    0
 -5  ALL         1    2    0    0    1ALL
 -1         5 0.00000E+00 0.00000E+00 0.00000E+00
 -1         6 0.00000E+00 0.00000E+00 0.00000E+00
 -1         7 0.00000E+00 0.00000E+00 0.00000E+00
 -1         8 0.00000E+00 0.00000E+00 0.00000E+00
 -1        21 0.00000E+00 0.00000E+00 0.00000E+00
 -1        22 0.00000E+00 0.00000E+00 0.00000E+00
 -1        23 0.00000E+00 0.00000E+00 0.00000E+00
 -1        24 0.00000E+00 0.00000E+00 0.00000E+00
 -1        25 0.00000E+00 0.00000E+00 0.00000E+00
 -1        26 0.00000E+00 0.00000E+00 0.00000E+00
 -1        27 0.00000E+00 0.00000E+00 0.00000E+00
 -1        28 0.00000E+00 0.00000E+00 0.00000E+00
 -1        29 0.00000E+00 0.00000E+00 0.00000E+00
 -1        30 0.00000E+00 0.00000E+00 0.00000E+00
 -1        31 0.00000E+00 0.00000E+00 0.00000E+00
 -1        32 0.00000E+00 0.00000E+00 0.00000E+00
 -1        44-7.92163E-06-6.98997E-04 8.83086E-05
 -1        45 7.76668E-06-5.17530E-04 1.59487E-04
 -1        46-1.66980E-05-3.94947E-04 1.71661E-04
 -1        47 2.41935E-05-1.65476E-04 1.16923E-04
 -1        48-2.41460E-05-1.65446E-04 1.16823E-04
 -1        49 1.62866E-05-3.95432E-04 1.71575E-04
 -1        50-7.62864E-06-5.16995E-04 1.60536E-04
 -1        51 5.55541E-06-7.01731E-04 9.24129E-05
 -1        74-7.05189E-05-6.50198E-04-8.63427E-05
 -1        75 9.63070E-06-5.39117E-04-1.57180E-04
 -1        76 9.58271E-06-3.85362E-04-1.68337E-04
 -1        77-2.51774E-05-1.61386E-04-1.16200E-04
 -1        89 7.17728E-05-6.51553E-04-8.85703E-05
 -1        90-9.96318E-06-5.39032E-04-1.57854E-04
 -1        91-9.44877E-06-3.85483E-04-1.68235E-04
 -1        92 2.51608E-05-1.61337E-04-1.16075E-04
 -1        98 0.00000E+00 0.00000E+00 0.00000E+00
 -1        99 0.00000E+00 0.00000E+00 0.00000E+00
 -1       100 0.00000E+00 0.00000E+00 0.00000E+00
 -1       101 0.00000E+00 0.00000E+00 0.00000E+00
 -1       102 0.00000E+00 0.00000E+00 0.00000E+00
 -1       124 1.05212E-05-6.18109E-04 8.27188E-05
 -1       125-3.68881E-07-6.70031E-04 7.85820E-05
 -1       126-1.18685E-05-6.16505E-04 8.11661E-05
 -1       127 1.61577E-09-5.41698E-04 1.47948E-04
 -1       128 6.55149E-06-4.05494E-04 1.83083E-04
 -1       129-4.79494E-08-3.78308E-04 1.88577E-04
 -1       130-6.81934E-06-4.05316E-04 1.82971E-04
 -1       131-1.08445E-08-1.68908E-04 1.20048E-04
 -1       153-2.29311E-05-7.83113E-04 3.01909E-05
 -1       154 3.77946E-06-6.45520E-04 2.42535E-05
 -1       155 1.13664E-05-7.44332E-04-4.37430E-05
 -1       156-1.29817E-05-5.53983E-04 2.01975E-07
 -1       157 4.30672E-07-3.56111E-04 7.58247E-05
 -1       158 9.66839E-06-3.74680E-04-4.05214E-06
 -1       159-1.53971E-06-3.54791E-04-6.86435E-05
 -1       160 2.21721E-06-1.48040E-04-1.74173E-06
 -1       182-4.00695E-05-5.80644E-04-5.80672E-05
 -1       183 1.14363E-07-7.09161E-04-1.23363E-04
 -1       184 4.07163E-05-5.81376E-04-5.87934E-05
 -1       185-9.03146E-08-5.41001E-04-1.46766E-04
 -1       186 5.99336E-06-4.07208E-04-1.88507E-04
 -1       187-5.10397E-08-3.78948E-04-1.79352E-04
 -1       188-5.97799E-06-4.07250E-04-1.88583E-04
 -1       189 9.64972E-09-1.67258E-04-1.14815E-04
 -1       211-1.05083E-05-7.45134E-04-4.47084E-05
 -1       212-3.60808E-06-6.45950E-04 2.39117E-05
 -1       213 2.17610E-05-7.84461E-04 3.12399E-05
 -1       214 1.28012E-05-5.53953E-04 2.45348E-07
 -1       215 1.57203E-06-3.54813E-04-6.86663E-05
 -1       216-9.65346E-06-3.74602E-04-3.98534E-06
 -1       217-6.00525E-07-3.56331E-04 7.60496E-05
 -1       218-2.25429E-06-1.48061E-04-1.75181E-06
 -1       250-3.64359E-07-7.11966E-04 5.06485E-05
 -1       251-8.90359E-07-5.34089E-04 5.05039E-07
 -1       252-7.69524E-08-5.84243E-04-1.92262E-06
 -1       253 8.45937E-07-5.33670E-04 5.92326E-07
 -1       254 1.05138E-07-7.20718E-04-5.42962E-05
 -1       255-5.74979E-08-5.64950E-04-1.10187E-06
 -1       256 6.11084E-09-3.45324E-04 7.91562E-05
 -1       257-5.27620E-06-3.86461E-04 1.41338E-06
 -1       258-2.08383E-08-3.57147E-04 5.38305E-07
 -1       259 5.27482E-06-3.86560E-04 1.40230E-06
 -1       260-6.06053E-08-3.48926E-04-7.94728E-05
 -1       261-1.48258E-08-1.57203E-04-1.96513E-07
 -3
    1PSTEP                         6           6           1          
  100CL  106 2.40000E-02          81                     1    6           1
 -4  DISP        4    1
 -5  D1          1    2    1    0
 -5  D2          1    2    2    0
 -5  D3          1    2    3    0
 -5  ALL         1    2    0    0    1ALL
 -1         5 0.00000E+00 0.00000E+00 0.00000E+00
 -1         6 0.00000E+00 0.00000E+00 0.00000E+00
 -1         7 0.00000E+00 0.00000E+00 0.00000E+00
 -1         8 0.00000E+00 0.00000E+00 0.00000E+00
 -1        21 0.00000E+00 0.00000E+00 0.00000E+00
 -1        22 0.00000E+00 0.00000E+00 0.00000E+00
 -1        23 0.00000E+00 0.00000E+00 0.00000E+00
 -1        24 0.00000E+00 0.00000E+00 0.00000E+00
 -1        25 0.00000E+00 0.00000E+00 0.00000E+00
 -1        26 0.00000E+00 0.00000E+00 0.00000E+00
 -1        27 0.00000E+00 0.00000E+00 0.00000E+00
 -1        28 0.00000E+00 0.00000E+00 0.00000E+00
 -1        29 0.00000E+00 0.00000E+00 0.00000E+00
 -1        30 0.00000E+00 0.00000E+00 0.00000E+00
 -1        31 0.00000E+00 0.00000E+00 0.00000E+00
 -1        32 0.00000E+00 0.00000E+00 0.00000E+00
 -1        44-4.95915E-05 6.72521E-04-1.28848E-04
 -1        45-4.70618E-06 5.04465E-04-1.88249E-04
 -1        46 2.74731E-06 3.56535E-04-1.99596E-04
 -1        47-2.11464E-05 1.37781E-04-1.16585E-04