    1C
    1UUSER                                                              
    1UDATE              12.july.2018                                    
    1UTIME              16:57:15                                        
    1UHOST                                                              
    1UPGM               CalculiX                                        
    1UVERSION           Version 2.13                             
    1UCOMPILETIME       jue jun 14 00:40:39 CEST 2018                    
    1UDIR                                                               
    1UDBN                                                               
    1UMAT    1EL                                                        
    2C                            81                                     1
 -1         5 0.00000E+00 0.00000E+00 8.00000E+00
 -1         6 1.00000E+00 0.00000E+00 8.00000E+00
 -1         7 1.00000E+00 1.00000E+00 8.00000E+00
 -1         8 0.00000E+00 1.00000E+00 8.00000E+00
 -1        21 2.50000E-01 0.00000E+00 8.00000E+00
 -1        22 5.00000E-01 0.00000E+00 8.00000E+00
 -1        23 7.50000E-01 0.00000E+00 8.00000E+00
 -1        24 1.00000E+00 2.50000E-01 8.00000E+00
 -1        25 1.00000E+00 5.00000E-01 8.00000E+00
 -1        26 1.00000E+00 7.50000E-01 8.00000E+00
 -1        27 7.50000E-01 1.00000E+00 8.00000E+00
 -1        28 5.00000E-01 1.00000E+00 8.00000E+00
 -1        29 2.50000E-01 1.00000E+00 8.00000E+00
 -1        30 0.00000E+00 7.50000E-01 8.00000E+00
 -1        31 0.00000E+00 5.00000E-01 8.00000E+00
 -1        32 0.00000E+00 2.50000E-01 8.00000E+00
 -1        44 1.00000E+00 0.00000E+00 6.00000E+00
 -1        45 1.00000E+00 0.00000E+00 6.50000E+00
 -1        46 1.00000E+00 0.00000E+00 7.00000E+00
 -1        47 1.00000E+00 0.00000E+00 7.50000E+00
 -1        48 0.00000E+00 0.00000E+00 7.50000E+00
 -1        49 0.00000E+00 0.00000E+00 7.00000E+00
 -1        50 0.00000E+00 0.00000E+00 6.50000E+00
 -1        51 0.00000E+00 0.00000E+00 6.00000E+00
 -1        74 1.00000E+00 1.00000E+00 6.00000E+00
 -1        75 1.00000E+00 1.00000E+00 6.50000E+00
 -1        76 1.00000E+00 1.00000E+00 7.00000E+00
 -1        77 1.00000E+00 1.00000E+00 7.50000E+00
 -1        89 0.00000E+00 1.00000E+00 6.00000E+00
 -1        90 0.00000E+00 1.00000E+00 6.50000E+00
 -1        91 0.00000E+00 1.00000E+00 7.00000E+00
 -1        92 0.00000E+00 1.00000E+00 7.50000E+00
 -1        98 5.00000E-01 2.50000E-01 8.00000E+00
 -1        99 2.50000E-01 5.00000E-01 8.00000E+00
 -1       100 5.00000E-01 5.00000E-01 8.00000E+00
 -1       101 7.50000E-01 5.00000E-01 8.00000E+00
 -1       102 5.00000E-01 7.50000E-01 8.00000E+00
 -1       124 2.50000E-01 0.00000E+00 6.00000E+00
 -1       125 5.00000E-01 0.00000E+00 6.00000E+00
 -1       126 7.50000E-01 0.00000E+00 6.00000E+00
 -1       127 5.00000E-01 0.00000E+00 6.50000E+00
 -1       128 2.50000E-01 0.00000E+00 7.00000E+00
 -1       129 5.00000E-01 0.00000E+00 7.00000E+00
 -1       130 7.50000E-01 0.00000E+00 7.00000E+00
 -1       131 5.00000E-01 0.00000E+00 7.50000E+00
 -1       153 1.00000E+00 2.50000E-01 6.00000E+00
 -1       154 1.00000E+00 5.00000E-01 6.00000E+00
 -1       155 1.00000E+00 7.50000E-01 6.00000E+00
 -1       156 1.00000E+00 5.00000E-01 6.50000E+00
 -1       157 1.00000E+00 2.50000E-01 7.00000E+00
 -1       158 1.00000E+00 5.00000E-01 7.00000E+00
 -1       159 1.00000E+00 7.50000E-01 7.00000E+00
 -1       160 1.00000E+00 5.00000E-01 7.50000E+00
 -1       182 7.50000E-01 1.00000E+00 6.00000E+00
 -1       183 5.00000E-01 1.00000E+00 6.00000E+00
 -1       184 2.50000E-01 1.00000E+00 6.00000E+00
 -1       185 5.00000E-01 1.00000E+00 6.50000E+00
 -1       186 7.50000E-01 1.00000E+00 7.00000E+00
 -1       187 5.00000E-01 1.00000E+00 7.00000E+00
 -1       188 2.50000E-01 1.00000E+00 7.00000E+00
 -1       189 5.00000E-01 1.00000E+00 7.50000E+00
 -1       211 0.00000E+00 7.50000E-01 6.00000E+00
 -1       212 0.00000E+00 5.00000E-01 6.00000E+00
 -1       213 0.00000E+00 2.50000E-01 6.00000E+00
 -1       214 0.00000E+00 5.00000E-01 6.50000E+00
 -1       215 0.00000E+00 7.50000E-01 7.00000E+00
 -1       216 0.00000E+00 5.00000E-01 7.00000E+00
 -1       217 0.00000E+00 2.50000E-01 7.00000E+00
 -1       218 0.00000E+00 5.00000E-01 7.50000E+00
 -1       250 5.00000E-01 2.50000E-01 6.00000E+00
 -1       251 2.50000E-01 5.00000E-01 6.00000E+00
 -1       252 5.00000E-01 5.00000E-01 6.00000E+00
 -1       253 7.50000E-01 5.00000E-01 6.00000E+00
 -1       254 5.00000E-01 7.50000E-01 6.00000E+00
 -1       255 5.00000E-01 5.00000E-01 6.50000E+00
 -1       256 5.00000E-01 2.50000E-01 7.00000E+00
 -1       257 2.50000E-01 5.00000E-01 7.00000E+00
 -1       258 5.00000E-01 5.00000E-01 7.00000E+00
 -1       259 7.50000E-01 5.00000E-01 7.00000E+00
 -1       260 5.00000E-01 7.50000E-01 7.00000E+00
 -1       261 5.00000E-01 5.00000E-01 7.50000E+00
 -3
    3C                             8                                     1
 -1        25    4    0    1
 -2        51       125       252       212        49       129       258       216       124       250
 -2       251       213        50       127       255       214       128       256       257       217
 -1        26    4    0    1
 -2       125        44       154       252       129        46       158       258       126       153
 -2       253       250       127        45       156       255       130       157       259       256
 -1        27    4    0    1
 -2       212       252       183        89       216       258       187        91       251       254
 -2       184       211       214       255       185        90       257       260       188       215
 -1        28    4    0    1
 -2       252       154        74       183       258       158        76       187       253       155
 -2       182       254       255       156        75       185       259       159       186       260
 -1        29    4    0    1
 -2        49       129       258       216         5        22       100        31       128       256
 -2       257       217        48       131       261       218        21        98        99        32
 -1        30    4    0    1
 -2       129        46       158       258        22         6        25       100       130       157
 -2       259       256       131        47       160       261        23        24       101        98
 -1        31    4    0    1
 -2       216       258       187        91        31       100        28         8       257       260
 -2       188       215       218       261       189        92        99       102        29        30
 -1        32    4    0    1
 -2       258       158        76       187       100        25         7        28       259       159
 -2       186       260       261       160        77       189       101        26        27       102
 -3
    1PSTEP                         1           1           1          
  100CL  101 4.00000E-03          81                     1    1           1
 -4  DISP        4    1
 -5  D1          1    2    1    0
 -5  D2          1    2    2    0
 -5  D3          1    2    3    0
 -5  ALL         1    2    0    0    1ALL
 -1         5 0.00000E+00 0.00000E+00 0.00000E+00
 -1         6 0.00000E+00 0.00000E+00 0.00000E+00
 -1         7 0.00000E+00 0.00000E+00 0.00000E+00
 -1         8 0.00000E+00 0.00000E+00 0.00000E+00
 -1        21 0.00000E+00 0.00000E+00 0.00000E+00
 -1        22 0.00000E+00 0.00000E+00 0.00000E+00
 -1        23 0.00000E+00 0.00000E+00 0.00000E+00
 -1        24 0.00000E+00 0.00000E+00 0.00000E+00
 -1        25 0.00000E+00 0.00000E+00 0.00000E+00
 -1        26 0.00000E+00 0.00000E+00 0.00000E+00
 -1        27 0.00000E+00 0.00000E+00 0.00000E+00
 -1        28 0.00000E+00 0.00000E+00 0.00000E+00
 -1        29 0.00000E+00 0.00000E+00 0.00000E+00
 -1        30 0.00000E+00 0.00000E+00 0.00000E+00
 -1        31 0.00000E+00 0.00000E+00 0.00000E+00
 -1        32 0.00000E+00 0.00000E+00 0.00000E+00
 -1        44 9.14643E-05-3.20137E-03 3.63436E-04
 -1        45 2.19501E-05-2.43041E-03 7.49461E-04
 -1        46-5.97655E-05-1.82167E-03 8.39464E-04
 -1        47 1.01176E-04-7.34691E-04 5.34706E-04
 -1        48-1.01188E-04-7.34703E-04 5.34743E-04
 -1        49 5.98669E-05-1.82157E-03 8.39495E-04
 -1        50-2.20431E-05-2.43050E-03 7.49127E-04
 -1        51-9.07404E-05-3.20064E-03 3.62237E-04
 -1        74-1.39907E-05-3.54207E-03-4.17734E-04
 -1        75 3.60433E-05-2.55407E-03-7.86192E-04
 -1        76 1.08990E-05-1.80391E-03-8.59996E-04
 -1        77-1.37717E-04-6.69546E-04-5.48389E-04
 -1        89 1.32680E-05-3.54135E-03-4.16535E-04
 -1        90-3.59497E-05-2.55416E-03-7.85858E-04
 -1        91-1.10002E-05-1.80381E-03-8.60027E-04
 -1        92 1.37729E-04-6.69558E-04-5.48426E-04
 -1        98 0.00000E+00 0.00000E+00 0.00000E+00
 -1        99 0.00000E+00 0.00000E+00 0.00000E+00
 -1       100 0.00000E+00 0.00000E+00 0.00000E+00
 -1       101 0.00000E+00 0.00000E+00 0.00000E+00
 -1       102 0.00000E+00 0.00000E+00 0.00000E+00
 -1       124-8.65531E-06-2.87174E-03 3.36744E-04
 -1       125 1.07866E-07-3.20659E-03 3.84488E-04
 -1       126 9.06518E-06-2.87215E-03 3.37173E-04
 -1       127-1.80724E-08-2.48314E-03 7.17936E-04
 -1       128 2.49455E-05-1.87511E-03 8.71569E-04
 -1       129-2.60008E-09-1.76220E-03 8.69724E-04
 -1       130-2.48944E-05-1.87515E-03 8.71608E-04
 -1       131 3.17430E-09-7.44053E-04 5.23033E-04
 -1       153-6.93968E-05-3.73562E-03 1.54948E-04
 -1       154-5.44861E-05-3.00925E-03-2.96069E-05
 -1       155 7.46808E-05-3.82560E-03-2.08116E-04
 -1       156-3.20526E-05-2.58244E-03-4.98074E-05
 -1       157 1.22538E-05-1.60653E-03 3.41461E-04
 -1       158 3.86911E-05-1.72166E-03-1.23051E-05
 -1       159 2.27622E-05-1.62723E-03-3.61942E-04
 -1       160 1.82253E-05-6.62950E-04 8.84410E-06
 -1       182-4.09037E-05-2.73768E-03-3.89194E-04
 -1       183-1.07332E-07-3.50172E-03-4.28773E-04
 -1       184 4.04952E-05-2.73727E-03-3.88765E-04
 -1       185 1.82959E-08-2.64181E-03-7.18994E-04
 -1       186 2.05077E-05-2.04569E-03-9.14477E-04
 -1       187 2.79390E-09-1.91283E-03-9.20741E-04
 -1       188-2.05586E-05-2.04565E-03-9.14437E-04
 -1       189-3.11995E-09-7.76984E-04-5.49041E-04
 -1       211-7.50957E-05-3.82519E-03-2.07686E-04
 -1       212 5.44869E-05-3.00904E-03-2.96070E-05
 -1       213 6.98121E-05-3.73521E-03 1.54518E-04
 -1       214 3.20532E-05-2.58248E-03-4.98075E-05
 -1       215-2.27973E-05-1.62718E-03-3.61903E-04
 -1       216-3.86911E-05-1.72167E-03-1.23053E-05
 -1       217-1.22184E-05-1.60647E-03 3.41422E-04
 -1       218-1.82253E-05-6.62944E-04 8.84402E-06
 -1       250 9.69201E-08-3.36164E-03 1.02077E-04
 -1       251 8.92588E-06-2.44583E-03 1.39355E-05
 -1       252 1.46873E-10-2.60043E-03-8.79704E-06
 -1       253-8.92555E-06-2.44602E-03 1.39356E-05
 -1       254-9.64327E-08-3.51186E-03-2.50982E-04
 -1       255 1.13799E-10-2.68498E-03-2.72909E-05
 -1       256-1.35402E-08-1.55852E-03 3.81879E-04
 -1       257-2.08887E-05-1.76318E-03-1.96575E-05
 -1       258 7.44291E-11-1.61263E-03-1.77712E-05
 -1       259 2.08888E-05-1.76315E-03-1.96575E-05
 -1       260 1.36865E-08-1.62781E-03-3.97334E-04
 -1       261 2.14795E-11-7.14498E-04 1.16316E-06
 -3
    1PSTEP                         2           2           1          
  100CL  102 8.00000E-03          81                     1    2           1
 -4  DISP        4    1
 -5  D1          1    2    1    0
 -5  D2          1    2    2    0
 -5  D3          1    2    3    0
 -5  ALL         1    2    0    0    1ALL
 -1         5 0.00000E+00 0.00000E+00 0.00000E+00
 -1         6 0.00000E+00 0.00000E+00 0.00000E+00
 -1         7 0.00000E+00 0.00000E+00 0.00000E+00
 -1         8 0.00000E+00 0.00000E+00 0.00000E+00
 -1        21 0.00000E+00 0.00000E+00 0.00000E+00
 -1        22 0.00000E+00 0.00000E+00 0.00000E+00
 -1        23 0.00000E+00 0.00000E+00 0.00000E+00
 -1        24 0.00000E+00 0.00000E+00 0.00000E+00
 -1        25 0.00000E+00 0.00000E+00 0.00000E+00
 -1        26 0.00000E+00 0.00000E+00 0.00000E+00
 -1        27 0.00000E+00 0.00000E+00 0.00000E+00
 -1        28 0.00000E+00 0.00000E+00 0.00000E+00
 -1        29 0.00000E+00 0.00000E+00 0.00000E+00
 -1        30 0.00000E+00 0.00000E+00 0.00000E+00
 -1        31 0.00000E+00 0.00000E+00 0.00000E+00
 -1        32 0.00000E+00 0.00000E+00 0.00000E+00
 -1        44-6.29556E-05 1.10100E-03-1.69281E-04
 -1        45-6.42419E-06 8.37460E-04-2.80646E-04
 -1        46 2.36407E-05 6.40201E-04-2.84629E-04
 -1        47-3.31619E-05 2.75485E-04-1.98905E-04
 -1        48 3.30575E-05 2.75369E-04-1.98666E-04
 -1        49-2.37613E-05 6.40608E-04-2.84242E-04
 -1        50 5.87546E-06 8.36705E-04-2.80313E-04
 -1        51 6.17357E-05 1.10256E-03-1.69941E-04
 -1        74 7.76162E-05 1.05903E-03 1.55878E-04
 -1        75 9.09347E-06 8.15882E-04 2.79471E-04
 -1        76-2.94964E-05 6.35896E-04 2.69456E-04
 -1        77 2.62423E-05 2.87486E-04 1.91004E-04
 -1        89-7.65770E-05 1.06023E-03 1.55439E-04
 -1        90-1.02630E-05 8.15661E-04 2.79749E-04
 -1        91 2.95609E-05 6.35957E-04 2.69766E-04
 -1        92-2.64041E-05 2.87500E-04 1.91143E-04
 -1        98 0.00000E+00 0.00000E+00 0.00000E+00
 -1        99 0.00000E+00 0.00000E+00 0.00000E+00
 -1       100 0.00000E+00 0.00000E+00 0.00000E+00
 -1       101 0.00000E+00 0.00000E+00 0.00000E+00
 -1       102 0.00000E+00 0.00000E+00 0.00000E+00
 -1       124 4.81310E-05 1.02303E-03-1.60902E-04
 -1       125-6.44065E-07 1.07356E-03-1.59848E-04
 -1       126-4.94214E-05 1.02194E-03-1.60478E-04
 -1       127-4.03616E-07 8.59575E-04-2.32885E-04
 -1       128-1.83616E-05 6.51197E-04-3.04627E-04
 -1       129 1.18661E-08 6.23949E-04-3.12232E-04
 -1       130 1.83278E-05 6.51065E-04-3.04842E-04
 -1       131-8.40087E-09 2.73134E-04-1.92902E-04
 -1       153 6.24391E-05 1.33609E-03-8.21361E-05
 -1       154-1.10380E-05 1.24055E-03-3.94149E-06
 -1       155-6.76756E-05 1.33137E-03 5.59904E-05
 -1       156-2.70514E-07 8.65127E-04-1.43870E-05
 -1       157-9.71178E-06 5.95353E-04-1.23229E-04
 -1       158 4.20210E-06 6.36732E-04-3.86279E-06
 -1       159 1.88636E-05 5.86291E-04 1.16441E-04
 -1       160 3.22988E-06 2.32165E-04 1.75350E-06
 -1       182 5.56674E-05 1.03565E-03 1.38242E-04
 -1       183-6.18198E-07 1.01711E-03 1.64600E-04
 -1       184-5.59394E-05 1.03626E-03 1.38957E-04
 -1       185-1.75407E-07 8.33895E-04 2.21743E-04
 -1       186-2.03489E-05 6.06096E-04 2.95720E-04
 -1       187-3.11764E-07 5.64380E-04 3.01878E-04
 -1       188 2.01039E-05 6.06143E-04 2.95654E-04
 -1       189-2.15818E-08 2.57425E-04 1.86471E-04
 -1       211 6.67113E-05 1.33170E-03 5.60401E-05
 -1       212 7.82078E-06 1.23995E-03-1.69727E-06
 -1       213-6.49921E-05 1.33642E-03-8.03910E-05
 -1       214 4.66068E-08 8.65557E-04-1.36812E-05
 -1       215-1.92231E-05 5.86078E-04 1.16876E-04
 -1       216-4.94991E-06 6.36245E-04-3.66742E-06
 -1       217 9.33399E-06 5.95332E-04-1.23150E-04
 -1       218-3.25456E-06 2.32175E-04 1.80630E-06
 -1       250-4.70613E-07 1.06469E-03-7.78553E-05
 -1       251 5.35281E-06 8.63762E-04-2.65461E-06
 -1       252-4.48617E-07 8.33451E-04-2.03732E-05
 -1       253-7.24252E-06 8.64209E-04-2.82372E-06
 -1       254-5.60420E-07 1.02889E-03 5.92968E-05
 -1       255-4.95507E-07 9.57636E-04-9.24225E-06
 -1       256-1.90444E-08 5.44036E-04-1.43839E-04
 -1       257-4.74573E-06 6.20219E-04-5.76610E-06
 -1       258-6.69762E-10 5.18417E-04-4.42049E-06
 -1       259 4.35578E-06 6.20429E-04-6.08378E-06
 -1       260-1.56614E-07 5.17437E-04 1.33926E-04
 -1       261-4.44831E-08 2.47426E-04 2.14283E-06
 -3
    1PSTEP                         3           3           1          
  100CL  103 1.20000E-02          81                     1    3           1
 -4  DISP        4    1
 -5  D1          1    2    1    0
 -5  D2          1    2    2    0
 -5  D3          1    2    3    0
 -5  ALL         1    2    0    0    1ALL
 -1         5 0.00000E+00 0.00000E+00 0.00000E+00
 -1         6 0.00000E+00 0.00000E+00 0.00000E+00
 -1         7 0.00000E+00 0.00000E+00 0.00000E+00
 -1         8 0.00000E+00 0.00000E+00 0.00000E+00
 -1        21 0.00000E+00 0.00000E+00 0.00000E+00
 -1        22 0.00000E+00 0.00000E+00 0.00000E+00
 -1        23 0.00000E+00 0.00000E+00 0.00000E+00
 -1        24 0.00000E+00 0.00000E+00 0.00000E+00
 -1        25 0.00000E+00 0.00000E+00 0.00000E+00
 -1        26 0.00000E+00 0.00000E+00 0.00000E+00
 -1        27 0.00000E+00 0.00000E+00 0.00000E+00
 -1        28 0.00000E+00 0.00000E+00 0.00000E+00
 -1        29 0.00000E+00 0.00000E+00 0.00000E+00
 -1        30 0.00000E+00 0.00000E+00 0.00000E+00
 -1        31 0.00000E+00 0.00000E+00 0.00000E+00
 -1        32 0.00000E+00 0.00000E+00 0.00000E+00
 -1        44 3.90853E-06-1.34246E-03 1.92252E-04
 -1        45 2.84537E-06-1.01072E-03 3.33439E-04
 -1        46-1.82376E-05-7.26175E-04 3.50708E-04
 -1        47 4.43655E-05-3.00473E-04 2.28321E-04
 -1        48-4.43881E-05-3.00492E-04 2.28409E-04
 -1        49 1.83385E-05-7.26114E-04 3.50802E-04
 -1        50-3.09716E-06-1.01080E-03 3.33682E-04
 -1        51-3.93683E-06-1.34277E-03 1.92596E-04
 -1        74 4.21398E-06-1.42129E-03-1.86201E-04
 -1        75 1.21095E-05-1.04959E-03-3.23264E-04
 -1        76 9.12886E-06-7.03029E-04-3.54107E-04
 -1        77-5.06830E-05-2.85495E-04-2.31349E-04
 -1        89-4.49838E-06-1.42134E-03-1.86268E-04
 -1        90-1.20257E-05-1.04966E-03-3.23331E-04
 -1        91-9.24050E-06-7.02958E-04-3.54121E-04
 -1        92 5.06992E-05-2.85495E-04-2.31407E-04
 -1        98 0.00000E+00 0.00000E+00 0.00000E+00
 -1        99 0.00000E+00 0.00000E+00 0.00000E+00
 -1       100 0.00000E+00 0.00000E+00 0.00000E+00
 -1       101 0.00000E+00 0.00000E+00 0.00000E+00
 -1       102 0.00000E+00 0.00000E+00 0.00000E+00
 -1       124 1.27875E-05-1.20327E-03 1.86542E-04
 -1       125-4.00843E-07-1.33532E-03 1.77760E-04
 -1       126-1.31895E-05-1.20305E-03 1.86011E-04
 -1       127 6.23403E-08-1.01481E-03 3.12295E-04
 -1       128 7.35186E-06-7.60731E-04 3.65669E-04
 -1       129-9.13106E-08-7.24224E-04 3.72700E-04
 -1       130-7.39109E-06-7.60772E-04 3.65686E-04
 -1       131 1.27424E-08-3.03352E-04 2.20228E-04
 -1       153-4.17082E-05-1.58518E-03 9.33575E-05
 -1       154-1.71543E-05-1.35143E-03 1.45212E-05
 -1       155 3.83746E-05-1.59524E-03-9.69883E-05
 -1       156-1.03153E-05-1.03997E-03-6.97153E-06
 -1       157 4.02604E-06-6.58038E-04 1.50284E-04
 -1       158 8.11189E-06-7.14307E-04 1.11756E-06
 -1       159-2.73815E-06-6.53542E-04-1.44834E-04
 -1       160 2.73934E-06-2.60909E-04 1.22783E-06
 -1       182 7.09199E-07-1.15326E-03-1.90954E-04
 -1       183 2.28451E-07-1.40392E-03-1.86945E-04
 -1       184-6.44167E-07-1.15341E-03-1.91344E-04
 -1       185-1.59723E-07-1.03910E-03-3.04906E-04
 -1       186 6.61433E-06-7.73117E-04-3.71758E-04
 -1       187 9.36922E-08-7.09940E-04-3.79593E-04
 -1       188-6.57285E-06-7.73056E-04-3.71701E-04
 -1       189-4.49109E-09-2.95411E-04-2.22400E-04
 -1       211-3.88755E-05-1.59552E-03-9.70009E-05
 -1       212 1.63810E-05-1.35199E-03 1.50393E-05
 -1       213 4.12330E-05-1.58558E-03 9.39214E-05
 -1       214 1.03742E-05-1.03983E-03-6.81162E-06
 -1       215 2.60084E-06-6.53552E-04-1.44795E-04
 -1       216-8.26433E-06-7.14393E-04 1.13205E-06
 -1       217-4.03780E-06-6.58053E-04 1.50325E-04
 -1       218-2.72388E-06-2.60891E-04 1.19946E-06
 -1       250-2.43108E-07-1.36145E-03 5.64684E-05
 -1       251 6.60427E-06-1.04141E-03 2.31913E-05
 -1       252-1.02359E-08-1.03722E-03-7.18600E-06
 -1       253-6.96525E-06-1.04108E-03 2.32535E-05
 -1       254 1.53306E-07-1.40011E-03-9.54810E-05
 -1       255-1.04714E-07-1.10307E-03-1.03677E-06
 -1       256-1.27692E-08-6.31151E-04 1.69860E-04
 -1       257-3.54227E-06-7.13266E-04-2.95701E-06
 -1       258 4.96318E-08-6.31644E-04 7.40239E-07
 -1       259 3.51389E-06-7.13235E-04-3.03776E-06
 -1       260 6.04892E-08-6.22493E-04-1.66530E-04
 -1       261-6.46925E-09-2.86454E-04-2.81156E-07
 -3
    1PSTEP                         4           4           1          
  100CL  104 1.60000E-02          81                     1    4           1
 -4  DISP        4    1
 -5  D1          1    2    1    0
 -5  D2          1    2    2    0
 -5  D3          1    2    3    0
 -5  ALL         1    2    0    0    1ALL
 -1         5 0.00000E+00 0.00000E+00 0.00000E+00
 -1         6 0.00000E+00 0.00000E+00 0.00000E+00
 -1         7 0.00000E+00 0.00000E+00 0.00000E+00
 -1         8 0.00000E+00 0.00000E+00 0.00000E+00
 -1        21 0.00000E+00 0.00000E+00 0.00000E+00
 -1        22 0.00000E+00 0.00000E+00 0.00000E+00
 -1        23 0.00000E+00 0.00000E+00 0.00000E+00
 -1        24 0.00000E+00 0.00000E+00 0.00000E+00
 -1        25 0.00000E+00 0.00000E+00 0.00000E+00
 -1        26 0.00000E+00 0.00000E+00 0.00000E+00
 -1        27 0.00000E+00 0.00000E+00 0.00000E+00
 -1        28 0.00000E+00 0.00000E+00 0.00000E+00
 -1        29 0.00000E+00 0.00000E+00 0.00000E+00
 -1        30 0.00000E+00 0.00000E+00 0.00000E+00
 -1        31 0.00000E+00 0.00000E+00 0.00000E+00
 -1        32 0.00000E+00 0.00000E+00 0.00000E+00
 -1        44-9.21302E-06 9.96812E-04-1.39873E-04
 -1        45-1.13554E-05 7.51667E-04-2.34391E-04
 -1        46 2.05306E-05 5.55036E-04-2.63599E-04
 -1        47-3.44788E-05 2.25339E-04-1.69117E-04
 -1        48 3.45372E-05 2.25411E-04-1.69510E-04
 -1        49-2.09458E-05 5.54678E-04-2.63701E-04
 -1        50 1.18022E-05 7.52028E-04-2.34299E-04
 -1        51 7.92585E-06 9.95933E-04-1.39345E-04
 -1        74 9.85927E-07 1.09414E-03 1.48264E-04
 -1        75-1.63464E-05 7.92311E-04 2.37819E-04
 -1        76-2.44173E-06 5.30688E-04 2.59040E-04
 -1        77 4.13700E-05 2.10975E-04 1.68406E-04
 -1        89-4.59524E-07 1.09195E-03 1.46382E-04
 -1        90 1.54603E-05 7.93680E-04 2.38220E-04
 -1        91 3.18007E-06 5.29730E-04 2.59591E-04
 -1        92-4.14820E-05 2.11113E-04 1.68878E-04
 -1        98 0.00000E+00 0.00000E+00 0.00000E+00
 -1        99 0.00000E+00 0.00000E+00 0.00000E+00
 -1       100 0.00000E+00 0.00000E+00 0.00000E+00
 -1       101 0.00000E+00 0.00000E+00 0.00000E+00
 -1       102 0.00000E+00 0.00000E+00 0.00000E+00
 -1       124-2.19018E-05 8.95930E-04-1.32746E-04
 -1       125 9.96820E-07 1.01206E-03-1.33048E-04
 -1       126 2.21255E-05 8.95772E-04-1.31390E-04
 -1       127-6.41508E-07 7.67400E-04-2.38732E-04
 -1       128-4.07171E-06 5.78797E-04-2.72830E-04
 -1       129 4.47539E-07 5.44720E-04-2.75268E-04
 -1       130 4.34537E-06 5.79095E-04-2.73093E-04
 -1       131-2.25139E-08 2.32669E-04-1.68247E-04
 -1       153 2.29250E-05 1.13172E-03-5.99655E-05
 -1       154 8.40982E-06 9.18445E-04-4.97457E-06
 -1       155-2.49043E-05 1.15841E-03 5.79923E-05
 -1       156 1.58312E-05 8.05299E-04 2.09884E-06
 -1       157-3.35595E-07 4.89772E-04-1.12399E-04
 -1       158-1.08989E-05 5.15342E-04 2.42939E-06
 -1       159 3.23234E-07 4.83073E-04 1.12118E-04
 -1       160-3.45557E-06 2.01927E-04 4.28546E-07
 -1       182-3.67085E-06 8.49658E-04 1.30791E-04
 -1       183-1.48915E-06 1.09358E-03 1.49537E-04
 -1       184 2.37357E-06 8.48419E-04 1.31211E-04
 -1       185 1.14026E-07 7.95321E-04 2.33198E-04
 -1       186-6.80432E-07 5.90851E-04 2.78092E-04
 -1       187-1.36190E-07 5.26008E-04 2.78371E-04
 -1       188 9.32654E-07 5.90429E-04 2.78108E-04
 -1       189 7.62334E-08 2.24143E-04 1.67741E-04
 -1       211 2.20862E-05 1.15876E-03 6.10086E-05
 -1       212-1.34967E-05 9.21073E-04-1.17542E-06
 -1       213-2.60051E-05 1.13247E-03-5.94310E-05
 -1       214-1.51460E-05 8.04379E-04 3.01445E-06
 -1       215-3.34404E-07 4.82976E-04 1.11960E-04
 -1       216 9.97095E-06 5.16127E-04 2.40438E-06
 -1       217-3.45993E-07 4.90002E-04-1.12152E-04
 -1       218 3.62865E-06 2.01829E-04 2.76509E-07
 -1       250 6.84102E-07 1.07071E-03-5.77412E-05
 -1       251 3.90728E-07 7.71509E-04-3.83160E-06
 -1       252 7.44277E-08 8.48373E-04-8.03751E-06
 -1       253-2.54110E-06 7.69992E-04-3.61403E-06
 -1       254-6.99116E-07 1.10756E-03 7.45791E-05
 -1       255-5.37713E-07 8.08514E-04 1.95057E-07
 -1       256 3.62429E-07 4.86816E-04-1.21611E-04
 -1       257 3.36304E-06 5.39061E-04 4.01963E-07
 -1       258 3.54555E-07 5.02901E-04 1.35787E-06
 -1       259-3.50539E-06 5.38709E-04-7.56734E-08
 -1       260 9.61142E-08 4.78082E-04 1.21058E-04
 -1       261-4.90159E-09 2.18076E-04 1.75072E-06
 -3
    1PSTEP                         5           5           1          
  100CL  105 2.00000E-02          81                     1    5           1
 -4  DISP        4    1
 -5  D1          1    2    1    0
 -5  D2          1    2    2    0
 -5  D3          1    2    3    0
 -5  ALL         1    2    0    0    1ALL
 -1         5 0.00000E+00 0.00000E+00 0.00000E+00
 -1         6 0.00000E+00 0.00000E+00 0.00000E+00
 -1         7 0.00000E+00 0.00000E+00 0.00000E+00
 -1         8 0.00000E+00 0.00000E+00 0.00000E+00
 -1        21 0.00000E+00 0.00000E+00 0.00000E+00
 -1        22 0.00000E+00 0.00000E+00 0.00000E+00
 -1        23 0.00000E+00 0.00000E+00 0.00000E+00
 -1        24 0.00000E+00 0.00000E+00 0.00000E+00
 -1        25 0.00000E+00 0.00000E+00 0.00000E+00
 -1        26 0.00000E+00 0.00000E+00 0.00000E+00
 -1        27 0.00000E+00 0.00000E+00 0.00000E+00
 -1        28 0.00000E+00 0.00000E+00 0.00000E+00
 -1        29 0.00000E+00 0.00000E+00 0.00000E+00
 -1        30 0.00000E+00 0.00000E+00 0.00000E+00
 -1        31 0.00000E+00 0.00000E+00 0.00000E+00
 -1        32 0.00000E+00 0.00000E+00 0.00000E+00
 -1        44 3.44817E-05-7.69934E-04 1.13598E-04
 -1        45-7.58551E-07-5.84180E-04 1.97304E-04
 -1        46-8.74692E-06-4.26516E-04 2.01918E-04
 -1        47 2.45969E-05-1.76082E-04 1.32609E-04
 -1        48-2.49211E-05-1.76143E-04 1.32736E-04
 -1        49 8.09516E-06-4.26783E-04 2.03047E-04
 -1        50-2.01201E-06-5.83994E-04 1.99034E-04
 -1        51-3.70534E-05-7.72519E-04 1.14495E-04
 -1        74-2.22658E-05-7.85805E-04-9.59675E-05
 -1        75-2.21830E-06-6.01465E-04-1.83537E-04
 -1        76 1.13332E-05-4.16387E-04-2.09309E-04
 -1        77-2.63976E-05-1.72125E-04-1.37005E-04
 -1        89 1.62983E-05-7.90801E-04-9.69794E-05
 -1        90-2.39202E-07-5.98472E-04-1.81402E-04
 -1        91-1.15532E-05-4.17981E-04-2.07566E-04
 -1        92 2.60694E-05-1.71713E-04-1.36064E-04
 -1        98 0.00000E+00 0.00000E+00 0.00000E+00
 -1        99 0.00000E+00 0.00000E+00 0.00000E+00
 -1       100 0.00000E+00 0.00000E+00 0.00000E+00
 -1       101 0.00000E+00 0.00000E+00 0.00000E+00
 -1       102 0.00000E+00 0.00000E+00 0.00000E+00
 -1       124-1.63712E-05-6.99034E-04 1.05764E-04
 -1       125-1.41592E-06-7.80277E-04 1.12469E-04
 -1       126 1.32603E-05-6.98593E-04 1.05592E-04
 -1       127-1.70126E-06-5.94703E-04 1.78265E-04
 -1       128 4.50417E-06-4.43932E-04 2.15942E-04
 -1       129-1.39811E-07-4.20190E-04 2.19606E-04
 -1       130-4.85687E-06-4.43588E-04 2.15375E-04
 -1       131-5.70114E-08-1.75787E-04 1.27654E-04
 -1       153-3.32228E-05-9.31765E-04 5.51306E-05
 -1       154-2.87473E-05-8.06967E-04-4.26218E-06
 -1       155 1.97225E-05-9.20065E-04-6.81686E-05
 -1       156-1.74946E-06-6.03279E-04-8.94032E-06
 -1       157 3.86008E-06-3.85382E-04 8.50961E-05
 -1       158-1.09681E-06-4.19215E-04 3.90438E-07
 -1       159-6.37884E-06-3.85517E-04-8.35125E-05
 -1       160 1.61430E-06-1.51311E-04 1.02323E-06
 -1       182-1.38697E-05-6.78428E-04-1.09736E-04
 -1       183-3.27034E-06-7.92477E-04-9.77619E-05
 -1       184 7.53630E-06-6.82091E-04-1.10489E-04
 -1       185-1.61493E-06-5.96259E-04-1.73636E-04
 -1       186 7.36408E-06-4.45986E-04-2.13654E-04
 -1       187 9.29699E-08-4.18251E-04-2.17701E-04
 -1       188-7.31905E-06-4.46511E-04-2.12690E-04
 -1       189 3.94534E-08-1.74799E-04-1.28966E-04
 -1       211-3.28435E-05-9.20549E-04-5.90871E-05
 -1       212 1.11323E-05-8.03865E-04 7.87084E-06
 -1       213 2.31949E-05-9.31728E-04 5.89376E-05
 -1       214 1.65474E-06-6.04805E-04-5.17802E-06
 -1       215 4.69860E-06-3.85598E-04-8.30191E-05
 -1       216-2.44605E-06-4.17676E-04 1.15235E-06
 -1       217-5.97563E-06-3.84722E-04 8.65842E-05
 -1       218-1.45343E-06-1.51401E-04 9.80842E-07
 -1       250-1.32407E-06-7.92341E-04 3.84294E-05
 -1       251 8.36379E-06-5.97224E-04 7.34534E-06
 -1       252-1.51242E-06-6.04614E-04-1.83439E-05
 -1       253-1.77703E-05-5.99228E-04 7.22548E-06
 -1       254-2.15458E-06-7.98594E-04-4.02635E-05
 -1       255-2.48428E-06-6.50116E-04-3.37448E-06
 -1       256 1.36807E-07-3.64287E-04 9.86369E-05
 -1       257-1.67833E-06-4.17661E-04-1.33528E-06
 -1       258 5.35285E-07-3.62164E-04 1.86388E-06
 -1       259 3.66246E-07-4.18332E-04-3.08479E-06
 -1       260 2.25444E-07-3.63400E-04-9.87969E-05
 -1       261-1.33844E-07-1.65809E-04 1.77070E-06
 -3
    1PSTEP                         6           6           1          
  100CL  106 2.40000E-02          81                     1    6           1
 -4  DISP        4    1
 -5  D1          1    2    1    0
 -5  D2          1    2    2    0
 -5  D3          1    2    3    0
 -5  ALL         1    2    0    0    1ALL
 -1         5 0.00000E+00 0.00000E+00 0.00000E+00
 -1         6 0.00000E+00 0.00000E+00 0.00000E+00
 -1         7 0.00000E+00 0.00000E+00 0.00000E+00
 -1         8 0.00000E+00 0.00000E+00 0.00000E+00
 -1        21 0.00000E+00 0.00000E+00 0.00000E+00
 -1        22 0.00000E+00 0.00000E+00 0.00000E+00
 -1        23 0.00000E+00 0.00000E+00 0.00000E+00
 -1        24 0.00000E+00 0.00000E+00 0.00000E+00
 -1        25 0.00000E+00 0.00000E+00 0.00000E+00
 -1        26 0.00000E+00 0.00000E+00 0.00000E+00
 -1        27 0.00000E+00 0.00000E+00 0.00000E+00
 -1        28 0.00000E+00 0.00000E+00 0.00000E+00
 -1        29 0.00000E+00 0.00000E+00 0.00000E+00
 -1        30 0.00000E+00 0.00000E+00 0.00000E+00
 -1        31 0.00000E+00 0.00000E+00 0.00000E+00
 -1        32 0.00000E+00 0.00000E+00 0.00000E+00
 -1        44-1.77304E-05 5.66522E-04-7.82813E-05
 -1        45-1.43234E-05 4.25597E-04-1.36302E-04
 -1        46 1.55306E-05 3.17786E-04-1.57302E-04
 -1        47-1.75545E-05 1.28404E-04-1.00244E-04