    1C
    1UUSER                                                              
    1UDATE              12.july.2018                                    
    1UTIME              16:51:56                                        
    1UHOST                                                              
    1UPGM               CalculiX                                        
    1UVERSION           Version 2.13                             
    1UCOMPILETIME       jue jun 14 00:40:39 CEST 2018                    
    1UDIR                                                               
    1UDBN                                                               
    1UMAT    1EL                                                        
    2C                           201                                     1
 -1         1 0.00000E+00 0.00000E+00 0.00000E+00
 -1         2 1.00000E+00 0.00000E+00 0.00000E+00
 -1         3 1.00000E+00 1.00000E+00 0.00000E+00
 -1         4 0.00000E+00 1.00000E+00 0.00000E+00
 -1         9 2.50000E-01 0.00000E+00 0.00000E+00
 -1        10 5.00000E-01 0.00000E+00 0.00000E+00
 -1        11 7.50000E-01 0.00000E+00 0.00000E+00
 -1        12 1.00000E+00 2.50000E-01 0.00000E+00
 -1        13 1.00000E+00 5.00000E-01 0.00000E+00
 -1        14 1.00000E+00 7.50000E-01 0.00000E+00
 -1        15 7.50000E-01 1.00000E+00 0.00000E+00
 -1        16 5.00000E-01 1.00000E+00 0.00000E+00
 -1        17 2.50000E-01 1.00000E+00 0.00000E+00
 -1        18 0.00000E+00 7.50000E-01 0.00000E+00
 -1        19 0.00000E+00 5.00000E-01 0.00000E+00
 -1        20 0.00000E+00 2.50000E-01 0.00000E+00
 -1        33 1.00000E+00 0.00000E+00 5.00000E-01
 -1        34 1.00000E+00 0.00000E+00 1.00000E+00
 -1        35 1.00000E+00 0.00000E+00 1.50000E+00
 -1        36 1.00000E+00 0.00000E+00 2.00000E+00
 -1        37 1.00000E+00 0.00000E+00 2.50000E+00
 -1        38 1.00000E+00 0.00000E+00 3.00000E+00
 -1        39 1.00000E+00 0.00000E+00 3.50000E+00
 -1        40 1.00000E+00 0.00000E+00 4.00000E+00
 -1        41 1.00000E+00 0.00000E+00 4.50000E+00
 -1        42 1.00000E+00 0.00000E+00 5.00000E+00
 -1        43 1.00000E+00 0.00000E+00 5.50000E+00
 -1        44 1.00000E+00 0.00000E+00 6.00000E+00
 -1        51 0.00000E+00 0.00000E+00 6.00000E+00
 -1        52 0.00000E+00 0.00000E+00 5.50000E+00
 -1        53 0.00000E+00 0.00000E+00 5.00000E+00
 -1        54 0.00000E+00 0.00000E+00 4.50000E+00
 -1        55 0.00000E+00 0.00000E+00 4.00000E+00
 -1        56 0.00000E+00 0.00000E+00 3.50000E+00
 -1        57 0.00000E+00 0.00000E+00 3.00000E+00
 -1        58 0.00000E+00 0.00000E+00 2.50000E+00
 -1        59 0.00000E+00 0.00000E+00 2.00000E+00
 -1        60 0.00000E+00 0.00000E+00 1.50000E+00
 -1        61 0.00000E+00 0.00000E+00 1.00000E+00
 -1        62 0.00000E+00 0.00000E+00 5.00000E-01
 -1        63 1.00000E+00 1.00000E+00 5.00000E-01
 -1        64 1.00000E+00 1.00000E+00 1.00000E+00
 -1        65 1.00000E+00 1.00000E+00 1.50000E+00
 -1        66 1.00000E+00 1.00000E+00 2.00000E+00
 -1        67 1.00000E+00 1.00000E+00 2.50000E+00
 -1        68 1.00000E+00 1.00000E+00 3.00000E+00
 -1        69 1.00000E+00 1.00000E+00 3.50000E+00
 -1        70 1.00000E+00 1.00000E+00 4.00000E+00
 -1        71 1.00000E+00 1.00000E+00 4.50000E+00
 -1        72 1.00000E+00 1.00000E+00 5.00000E+00
 -1        73 1.00000E+00 1.00000E+00 5.50000E+00
 -1        74 1.00000E+00 1.00000E+00 6.00000E+00
 -1        78 0.00000E+00 1.00000E+00 5.00000E-01
 -1        79 0.00000E+00 1.00000E+00 1.00000E+00
 -1        80 0.00000E+00 1.00000E+00 1.50000E+00
 -1        81 0.00000E+00 1.00000E+00 2.00000E+00
 -1        82 0.00000E+00 1.00000E+00 2.50000E+00
 -1        83 0.00000E+00 1.00000E+00 3.00000E+00
 -1        84 0.00000E+00 1.00000E+00 3.50000E+00
 -1        85 0.00000E+00 1.00000E+00 4.00000E+00
 -1        86 0.00000E+00 1.00000E+00 4.50000E+00
 -1        87 0.00000E+00 1.00000E+00 5.00000E+00
 -1        88 0.00000E+00 1.00000E+00 5.50000E+00
 -1        89 0.00000E+00 1.00000E+00 6.00000E+00
 -1        93 5.00000E-01 2.50000E-01 0.00000E+00
 -1        94 2.50000E-01 5.00000E-01 0.00000E+00
 -1        95 5.00000E-01 5.00000E-01 0.00000E+00
 -1        96 7.50000E-01 5.00000E-01 0.00000E+00
 -1        97 5.00000E-01 7.50000E-01 0.00000E+00
 -1       103 5.00000E-01 0.00000E+00 5.00000E-01
 -1       104 2.50000E-01 0.00000E+00 1.00000E+00
 -1       105 5.00000E-01 0.00000E+00 1.00000E+00
 -1       106 7.50000E-01 0.00000E+00 1.00000E+00
 -1       107 5.00000E-01 0.00000E+00 1.50000E+00
 -1       108 2.50000E-01 0.00000E+00 2.00000E+00
 -1       109 5.00000E-01 0.00000E+00 2.00000E+00
 -1       110 7.50000E-01 0.00000E+00 2.00000E+00
 -1       111 5.00000E-01 0.00000E+00 2.50000E+00
 -1       112 2.50000E-01 0.00000E+00 3.00000E+00
 -1       113 5.00000E-01 0.00000E+00 3.00000E+00
 -1       114 7.50000E-01 0.00000E+00 3.00000E+00
 -1       115 5.00000E-01 0.00000E+00 3.50000E+00
 -1       116 2.50000E-01 0.00000E+00 4.00000E+00
 -1       117 5.00000E-01 0.00000E+00 4.00000E+00
 -1       118 7.50000E-01 0.00000E+00 4.00000E+00
 -1       119 5.00000E-01 0.00000E+00 4.50000E+00
 -1       120 2.50000E-01 0.00000E+00 5.00000E+00
 -1       121 5.00000E-01 0.00000E+00 5.00000E+00
 -1       122 7.50000E-01 0.00000E+00 5.00000E+00
 -1       123 5.00000E-01 0.00000E+00 5.50000E+00
 -1       124 2.50000E-01 0.00000E+00 6.00000E+00
 -1       125 5.00000E-01 0.00000E+00 6.00000E+00
 -1       126 7.50000E-01 0.00000E+00 6.00000E+00
 -1       132 1.00000E+00 5.00000E-01 5.00000E-01
 -1       133 1.00000E+00 2.50000E-01 1.00000E+00
 -1       134 1.00000E+00 5.00000E-01 1.00000E+00
 -1       135 1.00000E+00 7.50000E-01 1.00000E+00
 -1       136 1.00000E+00 5.00000E-01 1.50000E+00
 -1       137 1.00000E+00 2.50000E-01 2.00000E+00
 -1       138 1.00000E+00 5.00000E-01 2.00000E+00
 -1       139 1.00000E+00 7.50000E-01 2.00000E+00
 -1       140 1.00000E+00 5.00000E-01 2.50000E+00
 -1       141 1.00000E+00 2.50000E-01 3.00000E+00
 -1       142 1.00000E+00 5.00000E-01 3.00000E+00
 -1       143 1.00000E+00 7.50000E-01 3.00000E+00
 -1       144 1.00000E+00 5.00000E-01 3.50000E+00
 -1       145 1.00000E+00 2.50000E-01 4.00000E+00
 -1       146 1.00000E+00 5.00000E-01 4.00000E+00
 -1       147 1.00000E+00 7.50000E-01 4.00000E+00
 -1       148 1.00000E+00 5.00000E-01 4.50000E+00
 -1       149 1.00000E+00 2.50000E-01 5.00000E+00
 -1       150 1.00000E+00 5.00000E-01 5.00000E+00
 -1       151 1.00000E+00 7.50000E-01 5.00000E+00
 -1       152 1.00000E+00 5.00000E-01 5.50000E+00
 -1       153 1.00000E+00 2.50000E-01 6.00000E+00
 -1       154 1.00000E+00 5.00000E-01 6.00000E+00
 -1       155 1.00000E+00 7.50000E-01 6.00000E+00
 -1       161 5.00000E-01 1.00000E+00 5.00000E-01
 -1       162 7.50000E-01 1.00000E+00 1.00000E+00
 -1       163 5.00000E-01 1.00000E+00 1.00000E+00
 -1       164 2.50000E-01 1.00000E+00 1.00000E+00
 -1       165 5.00000E-01 1.00000E+00 1.50000E+00
 -1       166 7.50000E-01 1.00000E+00 2.00000E+00
 -1       167 5.00000E-01 1.00000E+00 2.00000E+00
 -1       168 2.50000E-01 1.00000E+00 2.00000E+00
 -1       169 5.00000E-01 1.00000E+00 2.50000E+00
 -1       170 7.50000E-01 1.00000E+00 3.00000E+00
 -1       171 5.00000E-01 1.00000E+00 3.00000E+00
 -1       172 2.50000E-01 1.00000E+00 3.00000E+00
 -1       173 5.00000E-01 1.00000E+00 3.50000E+00
 -1       174 7.50000E-01 1.00000E+00 4.00000E+00
 -1       175 5.00000E-01 1.00000E+00 4.00000E+00
 -1       176 2.50000E-01 1.00000E+00 4.00000E+00
 -1       177 5.00000E-01 1.00000E+00 4.50000E+00
 -1       178 7.50000E-01 1.00000E+00 5.00000E+00
 -1       179 5.00000E-01 1.00000E+00 5.00000E+00
 -1       180 2.50000E-01 1.00000E+00 5.00000E+00
 -1       181 5.00000E-01 1.00000E+00 5.50000E+00
 -1       182 7.50000E-01 1.00000E+00 6.00000E+00
 -1       183 5.00000E-01 1.00000E+00 6.00000E+00
 -1       184 2.50000E-01 1.00000E+00 6.00000E+00
 -1       190 0.00000E+00 5.00000E-01 5.00000E-01
 -1       191 0.00000E+00 7.50000E-01 1.00000E+00
 -1       192 0.00000E+00 5.00000E-01 1.00000E+00
 -1       193 0.00000E+00 2.50000E-01 1.00000E+00
 -1       194 0.00000E+00 5.00000E-01 1.50000E+00
 -1       195 0.00000E+00 7.50000E-01 2.00000E+00
 -1       196 0.00000E+00 5.00000E-01 2.00000E+00
 -1       197 0.00000E+00 2.50000E-01 2.00000E+00
 -1       198 0.00000E+00 5.00000E-01 2.50000E+00
 -1       199 0.00000E+00 7.50000E-01 3.00000E+00
 -1       200 0.00000E+00 5.00000E-01 3.00000E+00
 -1       201 0.00000E+00 2.50000E-01 3.00000E+00
 -1       202 0.00000E+00 5.00000E-01 3.50000E+00
 -1       203 0.00000E+00 7.50000E-01 4.00000E+00
 -1       204 0.00000E+00 5.00000E-01 4.00000E+00
 -1       205 0.00000E+00 2.50000E-01 4.00000E+00
 -1       206 0.00000E+00 5.00000E-01 4.50000E+00
 -1       207 0.00000E+00 7.50000E-01 5.00000E+00
 -1       208 0.00000E+00 5.00000E-01 5.00000E+00
 -1       209 0.00000E+00 2.50000E-01 5.00000E+00
 -1       210 0.00000E+00 5.00000E-01 5.50000E+00
 -1       211 0.00000E+00 7.50000E-01 6.00000E+00
 -1       212 0.00000E+00 5.00000E-01 6.00000E+00
 -1       213 0.00000E+00 2.50000E-01 6.00000E+00
 -1       219 5.00000E-01 5.00000E-01 5.00000E-01
 -1       220 5.00000E-01 2.50000E-01 1.00000E+00
 -1       221 2.50000E-01 5.00000E-01 1.00000E+00
 -1       222 5.00000E-01 5.00000E-01 1.00000E+00
 -1       223 7.50000E-01 5.00000E-01 1.00000E+00
 -1       224 5.00000E-01 7.50000E-01 1.00000E+00
 -1       225 5.00000E-01 5.00000E-01 1.50000E+00
 -1       226 5.00000E-01 2.50000E-01 2.00000E+00
 -1       227 2.50000E-01 5.00000E-01 2.00000E+00
 -1       228 5.00000E-01 5.00000E-01 2.00000E+00
 -1       229 7.50000E-01 5.00000E-01 2.00000E+00
 -1       230 5.00000E-01 7.50000E-01 2.00000E+00
 -1       231 5.00000E-01 5.00000E-01 2.50000E+00
 -1       232 5.00000E-01 2.50000E-01 3.00000E+00
 -1       233 2.50000E-01 5.00000E-01 3.00000E+00
 -1       234 5.00000E-01 5.00000E-01 3.00000E+00
 -1       235 7.50000E-01 5.00000E-01 3.00000E+00
 -1       236 5.00000E-01 7.50000E-01 3.00000E+00
 -1       237 5.00000E-01 5.00000E-01 3.50000E+00
 -1       238 5.00000E-01 2.50000E-01 4.00000E+00
 -1       239 2.50000E-01 5.00000E-01 4.00000E+00
 -1       240 5.00000E-01 5.00000E-01 4.00000E+00
 -1       241 7.50000E-01 5.00000E-01 4.00000E+00
 -1       242 5.00000E-01 7.50000E-01 4.00000E+00
 -1       243 5.00000E-01 5.00000E-01 4.50000E+00
 -1       244 5.00000E-01 2.50000E-01 5.00000E+00
 -1       245 2.50000E-01 5.00000E-01 5.00000E+00
 -1       246 5.00000E-01 5.00000E-01 5.00000E+00
 -1       247 7.50000E-01 5.00000E-01 5.00000E+00
 -1       248 5.00000E-01 7.50000E-01 5.00000E+00
 -1       249 5.00000E-01 5.00000E-01 5.50000E+00
 -1       250 5.00000E-01 2.50000E-01 6.00000E+00
 -1       251 2.50000E-01 5.00000E-01 6.00000E+00
 -1       252 5.00000E-01 5.00000E-01 6.00000E+00
 -1       253 7.50000E-01 5.00000E-01 6.00000E+00
 -1       254 5.00000E-01 7.50000E-01 6.00000E+00
 -3
    3C                            24                                     1
 -1         1    4    0    1
 -2         1        10        95        19        61       105       222       192         9        93
 -2        94        20        62       103       219       190       104       220       221       193
 -1         2    4    0    1
 -2        10         2        13        95       105        34       134       222        11        12
 -2        96        93       103        33       132       219       106       133       223       220
 -1         3    4    0    1
 -2        19        95        16         4       192       222       163        79        94        97
 -2        17        18       190       219       161        78       221       224       164       191
 -1         4    4    0    1
 -2        95        13         3        16       222       134        64       163        96        14
 -2        15        97       219       132        63       161       223       135       162       224
 -1         5    4    0    1
 -2        61       105       222       192        59       109       228       196       104       220
 -2       221       193        60       107       225       194       108       226       227       197
 -1         6    4    0    1
 -2       105        34       134       222       109        36       138       228       106       133
 -2       223       220       107        35       136       225       110       137       229       226
 -1         7    4    0    1
 -2       192       222       163        79       196       228       167        81       221       224
 -2       164       191       194       225       165        80       227       230       168       195
 -1         8    4    0    1
 -2       222       134        64       163       228       138        66       167       223       135
 -2       162       224       225       136        65       165       229       139       166       230
 -1         9    4    0    1
 -2        59       109       228       196        57       113       234       200       108       226
 -2       227       197        58       111       231       198       112       232       233       201
 -1        10    4    0    1
 -2       109        36       138       228       113        38       142       234       110       137
 -2       229       226       111        37       140       231       114       141       235       232
 -1        11    4    0    1
 -2       196       228       167        81       200       234       171        83       227       230
 -2       168       195       198       231       169        82       233       236       172       199
 -1        12    4    0    1
 -2       228       138        66       167       234       142        68       171       229       139
 -2       166       230       231       140        67       169       235       143       170       236
 -1        13    4    0    1
 -2        57       113       234       200        55       117       240       204       112       232
 -2       233       201        56       115       237       202       116       238       239       205
 -1        14    4    0    1
 -2       113        38       142       234       117        40       146       240       114       141
 -2       235       232       115        39       144       237       118       145       241       238
 -1        15    4    0    1
 -2       200       234       171        83       204       240       175        85       233       236
 -2       172       199       202       237       173        84       239       242       176       203
 -1        16    4    0    1
 -2       234       142        68       171       240       146        70       175       235       143
 -2       170       236       237       144        69       173       241       147       174       242
 -1        17    4    0    1
 -2        55       117       240       204        53       121       246       208       116       238
 -2       239       205        54       119       243       206       120       244       245       209
 -1        18    4    0    1
 -2       117        40       146       240       121        42       150       246       118       145
 -2       241       238       119        41       148       243       122       149       247       244
 -1        19    4    0    1
 -2       204       240       175        85       208       246       179        87       239       242
 -2       176       203       206       243       177        86       245       248       180       207
 -1        20    4    0    1
 -2       240       146        70       175       246       150        72       179       241       147
 -2       174       242       243       148        71       177       247       151       178       248
 -1        21    4    0    1
 -2        53       121       246       208        51       125       252       212       120       244
 -2       245       209        52       123       249       210       124       250       251       213
 -1        22    4    0    1
 -2       121        42       150       246       125        44       154       252       122       149
 -2       247       244       123        43       152       249       126       153       253       250
 -1        23    4    0    1
 -2       208       246       179        87       212       252       183        89       245       248
 -2       180       207       210       249       181        88       251       254       184       211
 -1        24    4    0    1
 -2       246       150        72       179       252       154        74       183       247       151
 -2       178       248       249       152        73       181       253       155       182       254
 -3
    1PSTEP                         1           1           1          
  100CL  101 4.00000E-03         201                     1    1           1
 -4  DISP        4    1
 -5  D1          1    2    1    0
 -5  D2          1    2    2    0
 -5  D3          1    2    3    0
 -5  ALL         1    2    0    0    1ALL
 -1         1 0.00000E+00 0.00000E+00 0.00000E+00
 -1         2 0.00000E+00 0.00000E+00 0.00000E+00
 -1         3 0.00000E+00 0.00000E+00 0.00000E+00
 -1         4 0.00000E+00 0.00000E+00 0.00000E+00
 -1         9 0.00000E+00 0.00000E+00 0.00000E+00
 -1        10 0.00000E+00 0.00000E+00 0.00000E+00
 -1        11 0.00000E+00 0.00000E+00 0.00000E+00
 -1        12 0.00000E+00 0.00000E+00 0.00000E+00
 -1        13 0.00000E+00 0.00000E+00 0.00000E+00
 -1        14 0.00000E+00 0.00000E+00 0.00000E+00
 -1        15 0.00000E+00 0.00000E+00 0.00000E+00
 -1        16 0.00000E+00 0.00000E+00 0.00000E+00
 -1        17 0.00000E+00 0.00000E+00 0.00000E+00
 -1        18 0.00000E+00 0.00000E+00 0.00000E+00
 -1        19 0.00000E+00 0.00000E+00 0.00000E+00
 -1        20 0.00000E+00 0.00000E+00 0.00000E+00
 -1        33 6.86530E-05-1.67188E-04-2.19872E-04
 -1        34 3.37485E-05-5.17713E-04-4.02698E-04
 -1        35 2.77613E-05-1.04308E-03-5.20519E-04
 -1        36 8.71530E-06-1.64245E-03-5.82142E-04
 -1        37-5.19073E-06-2.26920E-03-5.89854E-04
 -1        38-2.21184E-05-2.89561E-03-5.60550E-04
 -1        39-4.58213E-05-3.43632E-03-4.15452E-04
 -1        40-4.77466E-05-3.81054E-03-2.28103E-04
 -1        41-4.51491E-05-3.84851E-03-7.12666E-05
 -1        42-6.38278E-05-4.02716E-03-1.72764E-04
 -1        43 6.57747E-05-3.74347E-03 8.53363E-05
 -1        44-1.01228E-04-3.75174E-03 4.80751E-04
 -1        51 1.01288E-04-3.75173E-03 4.80715E-04
 -1        52-6.56952E-05-3.74348E-03 8.53124E-05
 -1        53 6.39284E-05-4.02716E-03-1.72771E-04
 -1        54 4.52467E-05-3.84851E-03-7.12678E-05
 -1        55 4.78443E-05-3.81054E-03-2.28099E-04
 -1        56 4.59085E-05-3.43633E-03-4.15442E-04
 -1        57 2.21939E-05-2.89561E-03-5.60537E-04
 -1        58 5.25001E-06-2.26920E-03-5.89839E-04
 -1        59-8.67207E-06-1.64245E-03-5.82128E-04
 -1        60-2.77339E-05-1.04308E-03-5.20505E-04
 -1        61-3.37347E-05-5.17712E-04-4.02687E-04
 -1        62-6.86485E-05-1.67186E-04-2.19867E-04
 -1        63-6.72684E-05-1.65154E-04 2.15840E-04
 -1        64-3.35484E-05-5.17064E-04 3.94044E-04
 -1        65-2.49824E-05-1.04252E-03 5.08411E-04
 -1        66-8.42883E-06-1.65010E-03 5.66035E-04
 -1        67 5.07981E-06-2.25776E-03 5.69991E-04
 -1        68 1.45468E-05-2.89636E-03 5.30965E-04
 -1        69 6.47748E-05-3.44869E-03 3.84192E-04
 -1        70 7.46238E-05-3.91787E-03 1.98694E-04
 -1        71-1.30567E-05-3.70514E-03 3.53905E-05
 -1        72-1.30580E-04-3.71903E-03 9.12612E-05
 -1        73 2.44499E-04-4.23036E-03-1.82965E-04
 -1        74 4.03118E-04-4.86200E-03-5.35004E-04
 -1        78 6.72728E-05-1.65156E-04 2.15846E-04
 -1        79 3.35621E-05-5.17064E-04 3.94055E-04
 -1        80 2.50098E-05-1.04252E-03 5.08424E-04
 -1        81 8.47206E-06-1.65010E-03 5.66049E-04
 -1        82-5.02053E-06-2.25776E-03 5.70005E-04
 -1        83-1.44713E-05-2.89636E-03 5.30978E-04
 -1        84-6.46876E-05-3.44869E-03 3.84201E-04
 -1        85-7.45261E-05-3.91787E-03 1.98699E-04
 -1        86 1.31542E-05-3.70514E-03 3.53894E-05
 -1        87 1.30680E-04-3.71903E-03 9.12532E-05
 -1        88-2.44420E-04-4.23036E-03-1.82989E-04
 -1        89-4.03056E-04-4.86201E-03-5.35041E-04
 -1        93 0.00000E+00 0.00000E+00 0.00000E+00
 -1        94 0.00000E+00 0.00000E+00 0.00000E+00
 -1        95 0.00000E+00 0.00000E+00 0.00000E+00
 -1        96 0.00000E+00 0.00000E+00 0.00000E+00
 -1        97 0.00000E+00 0.00000E+00 0.00000E+00
 -1       103 1.71007E-09-1.95424E-04-2.15801E-04
 -1       104-1.68267E-05-5.38713E-04-4.08983E-04
 -1       105 6.75071E-09-5.41422E-04-4.11838E-04
 -1       106 1.68401E-05-5.38714E-04-4.08988E-04
 -1       107 1.35234E-08-1.05385E-03-5.23449E-04
 -1       108-3.46253E-06-1.64480E-03-5.86145E-04
 -1       109 2.14508E-08-1.65671E-03-5.84791E-04
 -1       110 3.50558E-06-1.64480E-03-5.86153E-04
 -1       111 2.98661E-08-2.25951E-03-5.94149E-04
 -1       112 7.70863E-06-2.92387E-03-5.62184E-04
 -1       113 3.73486E-08-2.91701E-03-5.63987E-04
 -1       114-7.63341E-06-2.92387E-03-5.62190E-04
 -1       115 4.42994E-08-3.39328E-03-4.24826E-04
 -1       116 3.67545E-05-3.78696E-03-2.21961E-04
 -1       117 4.76597E-08-3.92712E-03-1.97322E-04
 -1       118-3.66580E-05-3.78696E-03-2.21963E-04
 -1       119 5.07740E-08-3.82319E-03-7.63033E-05
 -1       120-9.64311E-06-4.21838E-03-1.28717E-04
 -1       121 4.64422E-08-4.06047E-03-1.31980E-04
 -1       122 9.74065E-06-4.21838E-03-1.28711E-04
 -1       123 4.25654E-08-3.74737E-03-3.76679E-05
 -1       124 1.80383E-04-3.19264E-03 4.61180E-04
 -1       125 2.05885E-08-3.86817E-03 4.81715E-04
 -1       126-1.80333E-04-3.19264E-03 4.61190E-04
 -1       132 8.43497E-07-1.27488E-04-1.87757E-06
 -1       133 1.73746E-05-5.04440E-04-1.91614E-04
 -1       134 1.05259E-06-5.09471E-04-3.37375E-06
 -1       135-1.64951E-05-5.04571E-04 1.83614E-04
 -1       136-1.79346E-07-1.02414E-03-6.54166E-06
 -1       137 5.38640E-06-1.64005E-03-2.89467E-04
 -1       138 6.31851E-07-1.63107E-03-8.61472E-06
 -1       139-4.00493E-06-1.64205E-03 2.73715E-04
 -1       140 2.01440E-06-2.28526E-03-1.07738E-05
 -1       141-1.15203E-05-2.87961E-03-2.63988E-04
 -1       142 6.53789E-06-2.88726E-03-5.97821E-06
 -1       143 1.25871E-05-2.88696E-03 2.40372E-04
 -1       144-1.03992E-05-3.46060E-03-1.48705E-05
 -1       145-1.99523E-05-3.82799E-03-1.45053E-04
 -1       146-1.52197E-05-3.71718E-03-2.90443E-05
 -1       147 1.75151E-05-3.85636E-03 1.08344E-04
 -1       148 3.18202E-05-3.96582E-03-2.78526E-05
 -1       149-4.43014E-05-3.67690E-03-5.64023E-05
 -1       150 1.00309E-04-3.70859E-03-2.43422E-06
 -1       151 3.91614E-05-3.59779E-03 1.20937E-06
 -1       152-1.49108E-04-4.00520E-03 1.36888E-05
 -1       153 1.08254E-04-3.89397E-03 2.04029E-04
 -1       154-1.41356E-04-2.59940E-03-2.43679E-05
 -1       155-1.01913E-04-4.18963E-03-2.59276E-04
 -1       161 1.70605E-09-1.94012E-04 2.11431E-04
 -1       162-1.65308E-05-5.37960E-04 4.01085E-04
 -1       163 6.74539E-09-5.38537E-04 4.03391E-04
 -1       164 1.65442E-05-5.37960E-04 4.01090E-04
 -1       165 1.35214E-08-1.05392E-03 5.11664E-04
 -1       166-4.23251E-06-1.64170E-03 5.69626E-04
 -1       167 2.14450E-08-1.65191E-03 5.72154E-04
 -1       168 4.27555E-06-1.64170E-03 5.69633E-04
 -1       169 2.98652E-08-2.26056E-03 5.69827E-04
 -1       170 7.73928E-06-2.92373E-03 5.38711E-04
 -1       171 3.73368E-08-2.88008E-03 5.33465E-04
 -1       172-7.66406E-06-2.92373E-03 5.38718E-04
 -1       173 4.43058E-08-3.41760E-03 3.96263E-04
 -1       174 3.48338E-05-3.71823E-03 1.83235E-04
 -1       175 4.76459E-08-3.83146E-03 1.85041E-04
 -1       176-3.47373E-05-3.71823E-03 1.83238E-04
 -1       177 5.07818E-08-3.77267E-03 2.33327E-05
 -1       178-5.36133E-05-4.33232E-03 8.02524E-05
 -1       179 4.63724E-08-3.84167E-03 5.02324E-05
 -1       180 5.37109E-05-4.33232E-03 8.02462E-05
 -1       181 4.27104E-08-3.98276E-03-6.30602E-05
 -1       182 1.38278E-04-2.71901E-03-5.10203E-04
 -1       183 2.09938E-08-4.76786E-03-5.13903E-04
 -1       184-1.38227E-04-2.71901E-03-5.10213E-04
 -1       190-8.38314E-07-1.27488E-04-1.87195E-06
 -1       191 1.65093E-05-5.04571E-04 1.83625E-04
 -1       192-1.03826E-06-5.09471E-04-3.36307E-06
 -1       193-1.73603E-05-5.04439E-04-1.91604E-04
 -1       194 2.07059E-07-1.02414E-03-6.52821E-06
 -1       195 4.04830E-06-1.64205E-03 2.73730E-04
 -1       196-5.88373E-07-1.63107E-03-8.59969E-06
 -1       197-5.34304E-06-1.64005E-03-2.89452E-04
 -1       198-1.95538E-06-2.28526E-03-1.07590E-05
 -1       199-1.25118E-05-2.88696E-03 2.40385E-04
 -1       200-6.46257E-06-2.88726E-03-5.96483E-06
 -1       201 1.15956E-05-2.87961E-03-2.63975E-04
 -1       202 1.04857E-05-3.46060E-03-1.48614E-05
 -1       203-1.74175E-05-3.85636E-03 1.08349E-04
 -1       204 1.53175E-05-3.71718E-03-2.90396E-05
 -1       205 2.00499E-05-3.82799E-03-1.45048E-04
 -1       206-3.17247E-05-3.96582E-03-2.78536E-05
 -1       207-3.90611E-05-3.59779E-03 1.20241E-06
 -1       208-1.00208E-04-3.70859E-03-2.43907E-06
 -1       209 4.44016E-05-3.67690E-03-5.64092E-05
 -1       210 1.49186E-04-4.00520E-03 1.36626E-05
 -1       211 1.01980E-04-4.18963E-03-2.59311E-04
 -1       212 1.41429E-04-2.59940E-03-2.44056E-05
 -1       213-1.08187E-04-3.89397E-03 2.03995E-04
 -1       219 2.07156E-09-1.55179E-04-1.67339E-06
 -1       220 6.96960E-09-5.25858E-04-1.97690E-04
 -1       221-4.80338E-07-5.27305E-04-4.25839E-06
 -1       222 6.98210E-09-5.28917E-04-4.45649E-06
 -1       223 4.94271E-07-5.27305E-04-4.26347E-06
 -1       224 6.96688E-09-5.24242E-04 1.89530E-04
 -1       225 1.37006E-08-1.03719E-03-6.00762E-06
 -1       226 2.14462E-08-1.64842E-03-2.94082E-04
 -1       227-4.11119E-07-1.63286E-03-8.04533E-06
 -1       228 2.14317E-08-1.63468E-03-9.91363E-06
 -1       229 4.54257E-07-1.63286E-03-8.05268E-06
 -1       230 2.14432E-08-1.64648E-03 2.76263E-04
 -1       231 2.98432E-08-2.28360E-03-8.75368E-06
 -1       232 3.71211E-08-2.89054E-03-2.69361E-04
 -1       233-2.56667E-06-2.88365E-03-1.48970E-05
 -1       234 3.70015E-08-2.88233E-03-1.64289E-05
 -1       235 2.64152E-06-2.88365E-03-1.49033E-05
 -1       236 3.71160E-08-2.87027E-03 2.43267E-04
 -1       237 4.40757E-08-3.43033E-03-1.09103E-05
 -1       238 4.71852E-08-3.88768E-03-1.35489E-04
 -1       239 6.81305E-06-3.71216E-03-1.68860E-05
 -1       240 4.68729E-08-3.73660E-03-2.35536E-05
 -1       241-6.71739E-06-3.71216E-03-1.68889E-05
 -1       242 4.71734E-08-3.84346E-03 9.36117E-05
 -1       243 5.05982E-08-3.93409E-03-2.49961E-05
 -1       244 4.54363E-08-3.79859E-03-2.39251E-05
 -1       245-3.95533E-05-3.87957E-03-3.07824E-05
 -1       246 4.49442E-08-3.94993E-03-2.32468E-05
 -1       247 3.96501E-05-3.87957E-03-3.07763E-05
 -1       248 4.54334E-08-3.69960E-03-1.19160E-05
 -1       249 4.23514E-08-3.77630E-03-1.54572E-05
 -1       250 2.01579E-08-4.41638E-03 1.85022E-04
 -1       251 3.50758E-05-2.78311E-03-1.20790E-05
 -1       252 1.95699E-08-3.36645E-03-1.78972E-05
 -1       253-3.50224E-05-2.78311E-03-1.20738E-05
 -1       254 2.02779E-08-4.80640E-03-2.78129E-04
 -3
    1PSTEP                         2           2           1          
  100CL  102 8.00000E-03         201                     1    2           1
 -4  DISP        4    1
 -5  D1          1    2    1    0
 -5  D2          1    2    2    0
 -5  D3          1    2    3    0
 -5  ALL         1    2    0    0    1ALL
 -1         1 0.00000E+00 0.00000E+00 0.00000E+00
 -1         2 0.00000E+00 0.00000E+00 0.00000E+00
 -1         3 0.00000E+00 0.00000E+00 0.00000E+00
 -1         4 0.00000E+00 0.00000E+00 0.00000E+00
 -1         9 0.00000E+00 0.00000E+00 0.00000E+00
 -1        10 0.00000E+00 0.00000E+00 0.00000E+00
 -1        11 0.00000E+00 0.00000E+00 0.00000E+00
 -1        12 0.00000E+00 0.00000E+00 0.00000E+00
 -1        13 0.00000E+00 0.00000E+00 0.00000E+00
 -1        14 0.00000E+00 0.00000E+00 0.00000E+00
 -1        15 0.00000E+00 0.00000E+00 0.00000E+00
 -1        16 0.00000E+00 0.00000E+00 0.00000E+00
 -1        17 0.00000E+00 0.00000E+00 0.00000E+00
 -1        18 0.00000E+00 0.00000E+00 0.00000E+00
 -1        19 0.00000E+00 0.00000E+00 0.00000E+00
 -1        20 0.00000E+00 0.00000E+00 0.00000E+00
 -1        33-2.23822E-05 5.61997E-05 7.23964E-05
 -1        34-1.06746E-05 1.73536E-04 1.31338E-04
 -1        35-8.79628E-06 3.48788E-04 1.69860E-04
 -1        36-3.45676E-06 5.47429E-04 1.88065E-04
 -1        37 4.17473E-06 7.59086E-04 1.88135E-04
 -1        38 1.14859E-05 9.68317E-04 1.67809E-04
 -1        39 1.42446E-05 1.13057E-03 1.24027E-04
 -1        40 4.56258E-06 1.25266E-03 5.55810E-05
 -1        41 3.29191E-05 1.28620E-03 6.44917E-06
 -1        42 4.00926E-05 1.30336E-03-3.85329E-05
 -1        43-2.94534E-05 1.16123E-03-8.07045E-05
 -1        44-2.34927E-04 1.03718E-03-1.70297E-04
 -1        51 2.34903E-04 1.03720E-03-1.70301E-04
 -1        52 2.94216E-05 1.16122E-03-8.07102E-05
 -1        53-4.01130E-05 1.30336E-03-3.85183E-05
 -1        54-3.29501E-05 1.28618E-03 6.44991E-06
 -1        55-4.58798E-06 1.25265E-03 5.55776E-05
 -1        56-1.42713E-05 1.13056E-03 1.24022E-04
 -1        57-1.15058E-05 9.68313E-04 1.67805E-04
 -1        58-4.19176E-06 7.59081E-04 1.88129E-04
 -1        59 3.44583E-06 5.47426E-04 1.88060E-04
 -1        60 8.78918E-06 3.48785E-04 1.69855E-04
 -1        61 1.06718E-05 1.73535E-04 1.31335E-04
 -1        62 2.23815E-05 5.61982E-05 7.23943E-05
 -1        63 2.27942E-05 5.68187E-05-7.36180E-05
 -1        64 1.07226E-05 1.73736E-04-1.33958E-04
 -1        65 9.64504E-06 3.48939E-04-1.73535E-04
 -1        66 3.56280E-06 5.45111E-04-1.92965E-04
 -1        67-4.36298E-06 7.62629E-04-1.94169E-04
 -1        68-1.39958E-05 9.68211E-04-1.76749E-04
 -1        69-8.09671E-06 1.12644E-03-1.33520E-04
 -1        70 4.44074E-06 1.21977E-03-6.46150E-05
 -1        71-5.27036E-05 1.33114E-03-1.74333E-05
 -1        72-1.02764E-04 1.39940E-03 1.41369E-05
 -1        73 1.31984E-04 1.00662E-03 5.14467E-05
 -1        74 3.43805E-04 6.90179E-04 1.53775E-04
 -1        78-2.27966E-05 5.68184E-05-7.36200E-05