
 displacements (vx,vy,vz) for set NALL and time  0.4000000E-02

         5  0.000000E+00  0.000000E+00  0.000000E+00
         6  0.000000E+00  0.000000E+00  0.000000E+00
         7  0.000000E+00  0.000000E+00  0.000000E+00
         8  0.000000E+00  0.000000E+00  0.000000E+00
        21  0.000000E+00  0.000000E+00  0.000000E+00
        22  0.000000E+00  0.000000E+00  0.000000E+00
        23  0.000000E+00  0.000000E+00  0.000000E+00
        24  0.000000E+00  0.000000E+00  0.000000E+00
        25  0.000000E+00  0.000000E+00  0.000000E+00
        26  0.000000E+00  0.000000E+00  0.000000E+00
        27  0.000000E+00  0.000000E+00  0.000000E+00
        28  0.000000E+00  0.000000E+00  0.000000E+00
        29  0.000000E+00  0.000000E+00  0.000000E+00
        30  0.000000E+00  0.000000E+00  0.000000E+00
        31  0.000000E+00  0.000000E+00  0.000000E+00
        32  0.000000E+00  0.000000E+00  0.000000E+00
        44 -6.815983E-05 -3.682068E-03  4.810599E-04
        45  7.217173E-05 -2.732119E-03  8.236118E-04
        46 -6.280699E-05 -1.960122E-03  1.031356E-03
        47  1.420009E-04 -7.261300E-04  5.851044E-04
        48 -1.420340E-04 -7.261697E-04  5.851917E-04
        49  6.253235E-05 -1.960235E-03  1.031568E-03
        50 -7.263370E-05 -2.732070E-03  8.240810E-04
        51  6.680307E-05 -3.682515E-03  4.820972E-04
        74  2.983109E-04 -4.679203E-03 -5.426987E-04
        75  1.723105E-04 -3.155986E-03 -8.296224E-04
        76 -9.957954E-05 -1.758953E-03 -1.033811E-03
        77 -2.200392E-04 -5.690753E-04 -6.021809E-04
        89 -2.996585E-04 -4.678760E-03 -5.416679E-04
        90 -1.727770E-04 -3.156032E-03 -8.291523E-04
        91  9.930830E-05 -1.758844E-03 -1.033597E-03
        92  2.200055E-04 -5.690353E-04 -6.020914E-04
        98  0.000000E+00  0.000000E+00  0.000000E+00
        99  0.000000E+00  0.000000E+00  0.000000E+00
       100  0.000000E+00  0.000000E+00  0.000000E+00
       101  0.000000E+00  0.000000E+00  0.000000E+00
       102  0.000000E+00  0.000000E+00  0.000000E+00
       124  2.631920E-04 -3.194125E-03  4.604702E-04
       125 -4.542543E-07 -3.923936E-03  4.845113E-04
       126 -2.642848E-04 -3.193918E-03  4.601192E-04
       127 -2.978302E-07 -2.781560E-03  1.004022E-03
       128 -3.035566E-05 -2.108026E-03  1.023571E-03
       129 -6.535398E-08 -1.935980E-03  1.010905E-03
       130  3.015435E-05 -2.107968E-03  1.023427E-03
       131 -1.051328E-08 -7.895593E-04  5.977574E-04
       153  8.874479E-05 -3.909156E-03  2.010247E-04
       154 -1.441196E-04 -2.541886E-03 -2.629169E-05
       155 -7.188403E-05 -4.152328E-03 -2.588569E-04
       156 -1.311977E-04 -3.031228E-03 -7.094721E-05
       157 -3.166083E-05 -1.600542E-03  4.225597E-04
       158  9.879985E-05 -1.658676E-03 -3.295684E-05
       159  5.825651E-05 -1.575400E-03 -4.465230E-04
       160  4.429695E-05 -7.109155E-04  5.820083E-06
       182  1.837670E-04 -2.767116E-03 -5.108671E-04
       183 -4.609155E-07 -4.751372E-03 -5.194613E-04
       184 -1.848622E-04 -2.766910E-03 -5.105095E-04
       185 -2.953468E-07 -3.085289E-03 -9.759483E-04
       186 -5.956530E-05 -2.344774E-03 -1.064777E-03
       187 -6.747283E-08 -1.972729E-03 -1.041908E-03
       188  5.936365E-05 -2.344717E-03 -1.064634E-03
       189 -1.026427E-08 -7.750105E-04 -6.092518E-04
       211  7.032176E-05 -4.152133E-03 -2.580497E-04
       212  1.424073E-04 -2.541881E-03 -2.539235E-05
       213 -9.030996E-05 -3.909348E-03  2.018276E-04
       214  1.308189E-04 -3.031230E-03 -7.046044E-05
       215 -5.857803E-05 -1.575341E-03 -4.462705E-04
       216 -9.917224E-05 -1.658674E-03 -3.274378E-05
       217  3.133734E-05 -1.600600E-03  4.228127E-04
       218 -4.434490E-05 -7.109157E-04  5.853116E-06
       250 -4.235780E-07 -4.418803E-03  1.907539E-04
       251  2.470936E-05 -2.769579E-03 -1.102193E-05
       252 -3.813427E-07 -3.464703E-03 -8.383360E-06
       253 -2.591138E-05 -2.769583E-03 -1.104651E-05
       254 -4.275282E-07 -4.804081E-03 -2.840040E-04
       255 -3.613620E-07 -2.768633E-03 -3.465118E-05
       256 -4.285843E-08 -1.751568E-03  4.260928E-04
       257 -4.380714E-05 -1.880166E-03 -1.437630E-05
       258 -1.812422E-08 -1.962153E-03 -1.802157E-05
       259  4.360810E-05 -1.880167E-03 -1.457719E-05
       260 -4.379452E-08 -1.770410E-03 -4.517930E-04
       261 -3.282464E-08 -7.713115E-04 -2.523646E-06

 forces (fx,fy,fz) for set NALL and time  0.4000000E-02

         5  3.242164E+00 -4.990775E+00 -1.140723E+00
         6 -3.241365E+00 -4.991156E+00 -1.139360E+00
         7  4.578121E+00  7.534763E-01  1.309237E+00
         8 -4.577362E+00  7.531318E-01  1.307933E+00
        21 -4.774524E+00  6.158403E+00 -1.925684E+01
        22 -8.605843E-05 -1.124064E+01 -4.831075E-01
        23  4.773658E+00  6.156197E+00 -1.925663E+01
        24 -5.140883E+00  1.950114E+01 -1.126835E+01
        25  1.104348E+00 -1.417313E+01 -4.952676E-01
        26  2.286818E+00  1.547002E+01  1.157060E+01
        27 -3.687494E+00 -3.363406E-01  1.897281E+01
        28 -6.371428E-05 -2.426491E+00  1.608580E+00
        29  3.686622E+00 -3.385058E-01  1.897257E+01
        30 -2.283158E+00  1.546970E+01  1.156825E+01
        31 -1.101825E+00 -1.417315E+01 -4.994717E-01
        32  5.144595E+00  1.950146E+01 -1.127067E+01
        44  6.391668E+00  5.969127E+01  1.682716E+00
        45 -1.114221E-05 -6.080146E-01  1.525725E-01
        46  8.516901E-06  1.541456E+00 -4.634120E-01
        47 -2.987125E-06 -1.167006E+00  5.403050E-01
        48  3.265511E-06 -1.167004E+00  5.403059E-01
        49 -7.624567E-06  1.541456E+00 -4.634123E-01
        50  8.300482E-06 -6.080183E-01  1.525719E-01
        51 -6.394671E+00  5.968923E+01  1.688775E+00
        74 -1.288458E+01  2.255417E+01 -1.079865E+00
        75  1.009738E-06 -6.081482E-01 -1.525291E-01
        76 -2.558404E-06  1.541551E+00  4.633995E-01
        77  6.271219E-06 -1.167026E+00 -5.402992E-01
        89  1.288169E+01  2.255611E+01 -1.074038E+00
        90 -5.417484E-06 -6.081424E-01 -1.525290E-01
        91  3.313183E-06  1.541550E+00  4.633997E-01
        92 -5.363445E-06 -1.167029E+00 -5.402991E-01
        98 -2.760286E-03  4.135242E+01 -1.816701E+01
        99 -9.589572E-02 -8.023320E+00  7.482514E-01
       100 -2.155180E-03 -2.493985E+01 -4.837766E-01
       101  9.488535E-02 -8.023250E+00  7.468925E-01
       102 -2.686271E-03  3.885803E+01  1.756389E+01
       124  2.977435E+01  2.065040E+01 -8.763065E-01
       125 -1.439151E-03  1.205461E+02  3.465920E+00
       126 -2.976957E+01  2.065451E+01 -8.712450E-01
       127  6.853176E-07 -1.216030E+00  3.051309E-01
       128  7.120440E-06 -2.615755E+00  9.358722E-01
       129 -3.080719E-07  3.082912E+00 -9.268193E-01
       130 -7.838723E-06 -2.615753E+00  9.358708E-01
       131  8.281453E-07 -2.334011E+00  1.080607E+00
       153  1.424619E+01 -1.496622E+02 -2.684865E+00
       154 -4.740211E+00  1.162581E+02  6.240386E-01
       155  4.161248E+00 -1.230236E+02  1.481864E+00
       156 -1.830535E-05 -1.216150E+00 -3.873062E-05
       157 -1.188627E-05 -2.615767E+00  7.018891E-01
       158  9.068983E-06  3.083004E+00  1.812003E-05
       159 -2.187342E-07 -2.615864E+00 -7.018938E-01
       160 -1.888990E-06 -2.334037E+00 -5.254930E-06
       182  1.962398E+01  6.968674E+01  4.850039E-01
       183 -1.452987E-03  5.807276E+01 -1.332179E+00
       184 -1.961928E+01  6.969088E+01  4.802727E-01
       185  2.019610E-06 -7.742628E+00 -3.050490E-01
       186  3.937245E-06 -9.142205E+00 -9.358309E-01
       187 -7.474195E-07 -3.443207E+00  9.268009E-01
       188 -4.501223E-06 -9.142202E+00 -9.358303E-01
       189  6.214787E-07 -8.860383E+00 -1.080591E+00
       211 -4.166791E+00 -1.230244E+02  1.481014E+00
       212  4.732153E+00  1.162581E+02  6.378350E-01
       213 -1.425173E+01 -1.496613E+02 -2.685989E+00
       214  1.451631E-05 -1.216151E+00 -3.590332E-05
       215 -2.378426E-06 -2.615862E+00 -7.018941E-01
       216 -7.253903E-06  3.083004E+00  1.681246E-05
       217  9.743709E-06 -2.615769E+00  7.018895E-01
       218  9.307248E-07 -2.334037E+00 -7.247491E-06
       250  5.241676E-03 -3.180829E+02 -6.333141E+00
       251  4.087090E+00  9.371397E+01  4.533878E-01
       252 -5.381673E-04  2.220171E+02  2.285208E+00
       253 -4.079378E+00  9.371380E+01  4.764445E-01
       254  5.073226E-03 -2.943939E+02  7.873305E-01
       255  5.142705E-06 -2.432311E+00 -9.487776E-05
       256  1.318906E-06 -5.231535E+00  1.403762E+00
       257  1.131043E-05 -5.231631E+00 -4.168276E-05
       258 -1.016536E-06  6.166017E+00  3.738421E-05
       259 -1.081608E-05 -5.231630E+00 -4.211284E-05
       260  2.641022E-06 -5.231746E+00 -1.403781E+00
       261 -7.826087E-07 -4.668082E+00 -1.462393E-05

 displacements (vx,vy,vz) for set NALL and time  0.8000000E-02

         5  0.000000E+00  0.000000E+00  0.000000E+00
         6  0.000000E+00  0.000000E+00  0.000000E+00
         7  0.000000E+00  0.000000E+00  0.000000E+00
         8  0.000000E+00  0.000000E+00  0.000000E+00
        21  0.000000E+00  0.000000E+00  0.000000E+00
        22  0.000000E+00  0.000000E+00  0.000000E+00
        23  0.000000E+00  0.000000E+00  0.000000E+00
        24  0.000000E+00  0.000000E+00  0.000000E+00
        25  0.000000E+00  0.000000E+00  0.000000E+00
        26  0.000000E+00  0.000000E+00  0.000000E+00
        27  0.000000E+00  0.000000E+00  0.000000E+00
        28  0.000000E+00  0.000000E+00  0.000000E+00
        29  0.000000E+00  0.000000E+00  0.000000E+00
        30  0.000000E+00  0.000000E+00  0.000000E+00
        31  0.000000E+00  0.000000E+00  0.000000E+00
        32  0.000000E+00  0.000000E+00  0.000000E+00
        44 -2.110707E-04  1.050075E-03 -1.701014E-04
        45 -1.531049E-05  8.576332E-04 -2.507354E-04
        46  3.695641E-05  6.446543E-04 -2.701357E-04
        47 -3.295072E-05  2.774522E-04 -2.062967E-04
        48  3.296555E-05  2.774913E-04 -2.064930E-04
        49 -3.714018E-05  6.447393E-04 -2.703792E-04
        50  1.594852E-05  8.574706E-04 -2.504599E-04
        51  2.116609E-04  1.048944E-03 -1.697562E-04
        74  3.446392E-04  6.637329E-04  1.530776E-04
        75  1.299603E-04  6.842725E-04  2.511936E-04
        76 -1.016817E-04  7.243457E-04  2.703864E-04
        77 -1.288442E-06  3.379131E-04  2.011049E-04
        89 -3.439957E-04  6.648545E-04  1.533638E-04
        90 -1.293268E-04  6.844213E-04  2.514502E-04
        91  1.014999E-04  7.242638E-04  2.701333E-04
        92  1.301702E-06  3.378732E-04  2.009033E-04
        98  0.000000E+00  0.000000E+00  0.000000E+00
        99  0.000000E+00  0.000000E+00  0.000000E+00
       100  0.000000E+00  0.000000E+00  0.000000E+00
       101  0.000000E+00  0.000000E+00  0.000000E+00
       102  0.000000E+00  0.000000E+00  0.000000E+00
       124  3.113216E-05  1.018734E-03 -1.568178E-04
       125  6.664260E-07  1.215150E-03 -1.660364E-04
       126 -3.035166E-05  1.018864E-03 -1.566104E-04
       127  1.971156E-08  9.176042E-04 -2.620469E-04
       128 -1.810387E-06  6.567679E-04 -3.148126E-04
       129  1.815208E-07  6.047604E-04 -3.279479E-04
       130  1.951286E-06  6.568112E-04 -3.147899E-04
       131 -2.482048E-08  2.676162E-04 -1.906026E-04
       153  1.909000E-04  1.430208E-03 -7.801586E-05
       154 -3.697320E-05  1.491493E-03 -7.084176E-06
       155 -2.038703E-04  1.281282E-03  6.126082E-05
       156 -4.476173E-05  9.879326E-04 -2.606901E-05
       157 -4.014476E-05  5.733813E-04 -1.219260E-04
       158  3.029503E-05  5.813320E-04 -1.149536E-05
       159  5.241426E-05  5.974836E-04  1.157851E-04
       160  1.487321E-05  2.004000E-04  1.834390E-06
       182  7.396169E-05  1.181356E-03  1.423740E-04
       183  6.820495E-07  9.213995E-04  1.552150E-04
       184 -7.314364E-05  1.181479E-03  1.421229E-04
       185  1.427349E-08  8.203689E-04  2.785020E-04
       186 -2.618968E-05  5.782276E-04  3.020246E-04
       187  1.808911E-07  6.044579E-04  3.220485E-04
       188  2.633126E-05  5.782730E-04  3.019983E-04
       189 -2.536014E-08  2.734323E-04  1.877436E-04
       211  2.040033E-04  1.282098E-03  6.097521E-05
       212  3.718391E-05  1.491469E-03 -6.218034E-06
       213 -1.908039E-04  1.429365E-03 -7.823219E-05
       214  4.481132E-05  9.879430E-04 -2.611524E-05
       215 -5.232879E-05  5.973867E-04  1.157747E-04
       216 -3.006293E-05  5.813239E-04 -1.167221E-05
       217  4.023120E-05  5.734717E-04 -1.219386E-04
       218 -1.484560E-05  2.004001E-04  1.792083E-06
       250  2.030793E-07  1.211877E-03 -8.388659E-05
       251  3.289610E-05  7.841517E-04 -2.578800E-06
       252 -3.925466E-07  1.063680E-03 -5.957143E-06
       253 -3.307991E-05  7.841684E-04 -3.215830E-06
       254  2.131306E-07  1.134620E-03  5.385619E-05
       255  1.290844E-07  1.011038E-03 -1.154309E-05
       256  6.305566E-08  5.358334E-04 -1.506856E-04
       257 -1.950805E-05  6.643479E-04 -4.326032E-06
       258 -3.196127E-08  5.059845E-04 -5.166785E-06
       259  1.955667E-05  6.643506E-04 -4.185921E-06
       260  6.198247E-08  5.220333E-04  1.425748E-04
       261  5.196414E-08  2.349959E-04 -7.413774E-07

 forces (fx,fy,fz) for set NALL and time  0.8000000E-02

         5 -1.530911E+00 -9.508256E-01  9.107991E-01
         6  1.530568E+00 -9.504403E-01  9.145590E-01
         7 -1.087081E+00  9.578587E-01 -8.499643E-01
         8  1.086749E+00  9.582041E-01 -8.538568E-01
        21  5.316520E-01 -3.078650E-01  6.229841E+00
        22 -4.156391E-03 -2.713118E+00  1.789499E+00
        23 -5.277154E-01 -3.053539E-01  6.227511E+00
        24  7.278191E-02 -2.241609E+00  3.015690E+00
        25  1.008315E-01 -6.499353E-01 -1.910256E-01
        26 -8.938280E-01 -3.481666E+00 -2.884821E+00
        27  7.750733E-01 -2.602077E+00 -6.373369E+00
        28 -4.141047E-03  7.339165E-01 -1.328849E+00
        29 -7.710967E-01 -2.599645E+00 -6.371031E+00
        30  8.948670E-01 -3.485383E+00 -2.878878E+00
        31 -1.028407E-01 -6.498661E-01 -1.949439E-01
        32 -7.170525E-02 -2.237965E+00  3.021466E+00
        44 -7.853121E+00 -2.791068E+00 -5.724672E-01
        45  9.539598E-06  5.208151E-01 -1.306911E-01
        46 -7.301506E-06 -1.320386E+00  3.969513E-01
        47  2.574705E-06  9.996391E-01 -4.628167E-01
        48 -2.813181E-06  9.996373E-01 -4.628175E-01
        49  6.537262E-06 -1.320387E+00  3.969516E-01
        50 -7.105564E-06  5.208182E-01 -1.306905E-01
        51  7.856580E+00 -2.786765E+00 -5.563152E-01
        74  5.846208E+00 -1.535242E+01  7.117942E-01
        75 -8.543926E-07  5.209295E-01  1.306539E-01
        76  2.193401E-06 -1.320468E+00 -3.969406E-01
        77 -5.388223E-06  9.996559E-01  4.628117E-01
        89 -5.842606E+00 -1.535675E+01  7.289099E-01
        90  4.629851E-06  5.209246E-01  1.306538E-01
        91 -2.839818E-06 -1.320467E+00 -3.969408E-01
        92  4.610622E-06  9.996589E-01  4.628117E-01
        98 -4.864103E-04 -4.246693E+00  5.435624E+00
        99 -4.109157E-01  2.806494E+00  2.530304E-01
       100  4.004374E-03 -7.319477E-01 -1.392490E-01
       101  4.086403E-01  2.806335E+00  2.518691E-01
       102 -5.724768E-04 -5.890193E+00 -5.718630E+00
       124 -3.505724E+00 -1.727956E+01  4.655991E-01
       125  1.096418E-02 -1.923840E+00 -9.329294E-01
       126  3.495719E+00 -1.728845E+01  4.825433E-01
       127 -5.871831E-07  1.041631E+00 -2.613701E-01
       128 -6.108457E-06  2.240614E+00 -8.016533E-01
       129  2.640064E-07 -2.640773E+00  7.938986E-01
       130  6.723589E-06  2.240612E+00 -8.016520E-01
       131 -7.093892E-07  1.999277E+00 -9.256309E-01
       153  9.812696E+00  2.597821E+01  8.511987E-01
       154  9.559682E-01 -1.155362E+01  1.394403E-01
       155 -5.095259E+00  3.399887E+01 -1.161872E+00
       156  1.567293E-05  1.041733E+00  3.316154E-05
       157  1.019071E-05  2.240624E+00 -6.012271E-01
       158 -7.768587E-06 -2.640852E+00 -1.551200E-05
       159  1.839436E-07  2.240708E+00  6.012310E-01
       160  1.623687E-06  1.999300E+00  4.501328E-06
       182 -5.900151E+00  4.205505E-01 -5.034690E-01
       183  1.096970E-02 -2.787474E+01  1.483633E+00
       184  5.890117E+00  4.116495E-01 -5.220694E-01
       185 -1.730117E-06 -9.304266E-01  2.612999E-01
       186 -3.377854E-06  2.684295E-01  8.016178E-01
       187  6.403446E-07 -4.613241E+00 -7.938828E-01
       188  3.860810E-06  2.684271E-01  8.016173E-01
       189 -5.323617E-07  2.702559E-02  9.256171E-01
       211  5.095328E+00  3.403015E+01 -1.193826E+00
       212 -9.638662E-01 -1.155373E+01  1.740217E-01
       213 -9.812987E+00  2.594685E+01  8.214479E-01
       214 -1.242759E-05  1.041734E+00  3.073983E-05
       215  2.040604E-06  2.240706E+00  6.012313E-01
       216  6.214045E-06 -2.640852E+00 -1.439206E-05
       217 -8.355568E-06  2.240626E+00 -6.012274E-01
       218 -8.028864E-07  1.999299E+00  6.208163E-06
       250  2.605905E-03  3.970591E+01  1.104311E+00
       251  4.898372E+00 -3.518210E+01  2.815365E-01
       252 -1.988673E-02 -2.476834E+01  4.475314E-01
       253 -4.884265E+00 -3.518192E+01  2.621459E-01
       254  2.619466E-03  5.499220E+01 -2.776436E+00
       255 -4.405462E-06  2.083477E+00  8.124567E-05
       256 -1.129893E-06  4.481249E+00 -1.202441E+00
       257 -9.693763E-06  4.481331E+00  3.569168E-05
       258  8.709841E-07 -5.281711E+00 -3.200402E-05
       259  9.270027E-06  4.481331E+00  3.605996E-05
       260 -2.262397E-06  4.481430E+00  1.202457E+00
       261  6.703390E-07  3.998605E+00  1.252578E-05

 displacements (vx,vy,vz) for set NALL and time  0.1200000E-01

         5  0.000000E+00  0.000000E+00  0.000000E+00
         6  0.000000E+00  0.000000E+00  0.000000E+00
         7  0.000000E+00  0.000000E+00  0.000000E+00
         8  0.000000E+00  0.000000E+00  0.000000E+00
        21  0.000000E+00  0.000000E+00  0.000000E+00
        22  0.000000E+00  0.000000E+00  0.000000E+00
        23  0.000000E+00  0.000000E+00  0.000000E+00
        24  0.000000E+00  0.000000E+00  0.000000E+00
        25  0.000000E+00  0.000000E+00  0.000000E+00
        26  0.000000E+00  0.000000E+00  0.000000E+00
        27  0.000000E+00  0.000000E+00  0.000000E+00
        28  0.000000E+00  0.000000E+00  0.000000E+00
        29  0.000000E+00  0.000000E+00  0.000000E+00
        30  0.000000E+00  0.000000E+00  0.000000E+00
        31  0.000000E+00  0.000000E+00  0.000000E+00
        32  0.000000E+00  0.000000E+00  0.000000E+00
        44  8.782185E-05 -1.291859E-03  1.843411E-04
        45  1.738267E-05 -9.960181E-04  2.966138E-04
        46 -2.715410E-05 -7.180696E-04  3.434749E-04
        47  4.614620E-05 -2.886577E-04  2.235527E-04
        48 -4.617390E-05 -2.886658E-04  2.235933E-04
        49  2.701075E-05 -7.180446E-04  3.435629E-04
        50 -1.752908E-05 -9.960913E-04  2.966860E-04
        51 -8.833542E-05 -1.291459E-03  1.843403E-04
        74 -9.109568E-05 -1.284628E-03 -1.848654E-04
        75 -1.909130E-05 -9.923697E-04 -2.978722E-04
        76  2.592098E-05 -7.185421E-04 -3.435705E-04
        77 -4.581212E-05 -2.896473E-04 -2.233680E-04
        89  9.044492E-05 -1.284904E-03 -1.846855E-04
        90  1.899118E-05 -9.923322E-04 -2.977723E-04
        91 -2.610167E-05 -7.185305E-04 -3.434944E-04
        92  4.579112E-05 -2.896440E-04 -2.233477E-04
        98  0.000000E+00  0.000000E+00  0.000000E+00
        99  0.000000E+00  0.000000E+00  0.000000E+00
       100  0.000000E+00  0.000000E+00  0.000000E+00
       101  0.000000E+00  0.000000E+00  0.000000E+00
       102  0.000000E+00  0.000000E+00  0.000000E+00
       124  1.022165E-05 -1.162335E-03  1.731629E-04
       125 -1.308929E-07 -1.396718E-03  1.815972E-04
       126 -1.058648E-05 -1.162513E-03  1.732764E-04
       127 -1.112771E-07 -1.023178E-03  3.285514E-04
       128  4.087630E-08 -7.607049E-04  3.659347E-04
       129 -3.508195E-08 -7.052574E-04  3.708738E-04
       130 -1.510557E-07 -7.607247E-04  3.658656E-04
       131 -1.785938E-08 -2.984678E-04  2.187938E-04
       153 -8.008967E-05 -1.507605E-03  8.154814E-05
       154  1.674216E-06 -1.304124E-03 -3.229156E-07
       155  7.970494E-05 -1.493338E-03 -8.147864E-05
       156  6.025523E-07 -1.112922E-03  5.109962E-07
       157  1.495515E-05 -6.222657E-04  1.477233E-04
       158  1.290447E-07 -6.351468E-04  6.112826E-08
       159 -1.492431E-05 -6.249372E-04 -1.479635E-04
       160 -3.717904E-07 -2.453991E-04 -1.302506E-07
       182 -3.789376E-06 -1.166054E-03 -1.731077E-04
       183 -8.517861E-08 -1.391018E-03 -1.821837E-04
       184  3.407927E-06 -1.166179E-03 -1.732117E-04
       185 -1.257844E-07 -1.021560E-03 -3.288763E-04
       186  2.478371E-06 -7.600229E-04 -3.659478E-04
       187 -1.820851E-08 -7.075530E-04 -3.709432E-04
       188 -2.590485E-06 -7.600241E-04 -3.658662E-04
       189 -1.999251E-08 -2.988879E-04 -2.187460E-04
       211 -7.980575E-05 -1.493489E-03 -8.146841E-05
       212 -1.262308E-06 -1.304164E-03 -7.305565E-07
       213  8.005363E-05 -1.507437E-03  8.153944E-05
       214 -9.933292E-07 -1.112908E-03  4.976218E-07
       215  1.485693E-05 -6.249389E-04 -1.478957E-04
       216 -6.552013E-08 -6.351590E-04  1.818825E-07
       217 -1.500417E-05 -6.222580E-04  1.477811E-04
       218  3.113595E-07 -2.453964E-04 -2.085830E-08
       250 -1.928556E-07 -1.515211E-03  8.117457E-05
       251 -7.412504E-06 -9.551430E-04 -3.399707E-07
       252 -2.564567E-07 -1.232838E-03  3.282659E-07
       253  7.326200E-06 -9.551248E-04 -5.607101E-07
       254 -1.704828E-07 -1.525595E-03 -8.104237E-05
       255 -1.629334E-08 -1.081677E-03  2.204324E-08
       256 -8.396186E-08 -6.229717E-04  1.625086E-04
       257  1.385156E-06 -7.204729E-04  3.927580E-08
       258 -1.299378E-07 -6.473416E-04 -6.157109E-09
       259 -1.479940E-06 -7.204659E-04  7.700716E-08
       260 -7.492029E-08 -6.211767E-04 -1.624781E-04
       261 -3.742525E-09 -2.754951E-04 -9.357242E-11

 forces (fx,fy,fz) for set NALL and time  0.1200000E-01

         5  1.261396E+00 -3.029443E-01 -7.277487E-01
         6 -1.260425E+00 -3.037086E-01 -7.283106E-01
         7  1.203750E+00 -3.099373E-01  7.291053E-01
         8 -1.202421E+00 -3.110454E-01  7.291075E-01
        21 -8.395210E-01  1.343977E+00 -7.090962E+00
        22  4.376004E-05 -6.838750E-01 -1.089639E+00
        23  8.387668E-01  1.345153E+00 -7.089964E+00
        24 -1.052307E+00  4.677627E+00 -3.748775E+00
        25  2.139858E-02 -2.010195E+00  1.700529E-03
        26  1.080950E+00  4.649602E+00  3.742501E+00
        27 -7.530121E-01  1.389362E+00  7.093491E+00
        28 -1.913984E-04 -7.959214E-01  1.092008E+00
        29  7.522979E-01  1.389988E+00  7.092786E+00
        30 -1.081962E+00  4.650658E+00  3.740864E+00
        31 -2.273205E-02 -2.009996E+00  5.457682E-03
        32  1.050699E+00  4.676536E+00 -3.750651E+00
        44  4.190498E+00  1.209530E+01  6.087052E-01
        45 -7.573217E-06 -4.142148E-01  1.039414E-01
        46  5.814340E-06  1.050132E+00 -3.157042E-01
        47 -2.075377E-06 -7.950353E-01  3.680885E-01
        48  2.265071E-06 -7.950339E-01  3.680891E-01
        49 -5.206721E-06  1.050132E+00 -3.157044E-01
        50  5.637630E-06 -4.142173E-01  1.039409E-01
        51 -4.190992E+00  1.209576E+01  6.056184E-01
        74 -3.826724E+00  1.215045E+01 -6.194633E-01
        75  6.595770E-07 -4.143058E-01 -1.039118E-01
        76 -1.746975E-06  1.050197E+00  3.156957E-01
        77  4.313263E-06 -7.950487E-01 -3.680845E-01
        89  3.825143E+00  1.215102E+01 -6.206308E-01
        90 -3.662029E-06 -4.143019E-01 -1.039117E-01
        91  2.260884E-06  1.050196E+00  3.156958E-01
        92 -3.694792E-06 -7.950511E-01 -3.680845E-01
        98  1.408417E-03  1.034622E+01 -6.487109E+00
        99  7.426385E-02 -3.122940E+00 -3.290421E-03
       100  3.522483E-03 -4.330400E+00  1.564990E-03
       101 -7.646001E-02 -3.123558E+00  1.571981E-03
       102  7.537013E-04  1.048329E+01  6.488359E+00
       124  5.151111E+00  1.322948E+01 -3.895188E-01
       125  5.688963E-04  2.503103E+01  1.113124E+00
       126 -5.151863E+00  1.322548E+01 -3.909415E-01
       127  4.672545E-07 -8.284304E-01  2.078731E-01
       128  4.871442E-06 -1.782009E+00  6.375726E-01
       129 -2.101708E-07  2.100264E+00 -6.314051E-01
       130 -5.360427E-06 -1.782008E+00  6.375716E-01
       131  5.642179E-07 -1.590069E+00  7.361750E-01
       153 -2.364696E+00 -4.092238E+01 -9.440189E-01
       154 -2.592200E-01  2.658161E+01 -4.694173E-03
       155  2.221894E+00 -4.065461E+01  9.652583E-01
       156 -1.245812E-05 -8.285117E-01 -2.635677E-05
       157 -8.117831E-06 -1.782018E+00  4.781692E-01
       158  6.179361E-06  2.100327E+00  1.232574E-05
       159 -1.403059E-07 -1.782084E+00 -4.781723E-01
       160 -1.297643E-06 -1.590088E+00 -3.579995E-06
       182  4.539859E+00  1.284534E+01  4.015836E-01
       183  7.728424E-04  2.605045E+01 -1.136498E+00
       184 -4.540117E+00  1.284160E+01  4.014002E-01
       185  1.376256E-06 -8.300804E-01 -2.078173E-01
       186  2.695162E-06 -1.783559E+00 -6.375444E-01
       187 -5.094805E-07  2.098940E+00  6.313925E-01
       188 -3.079026E-06 -1.783557E+00 -6.375440E-01
       189  4.234236E-07 -1.591566E+00 -7.361640E-01
       211 -2.220494E+00 -4.065573E+01  9.690558E-01
       212  2.660001E-01  2.658146E+01 -1.881154E-02
       213  2.366527E+00 -4.092170E+01 -9.387810E-01
       214  9.877503E-06 -8.285124E-01 -2.443092E-05
       215 -1.628684E-06 -1.782082E+00 -4.781726E-01
       216 -4.943389E-06  2.100327E+00  1.143518E-05
       217  6.658544E-06 -1.782019E+00  4.781694E-01
       218  6.449078E-07 -1.590087E+00 -4.937542E-06
       250 -3.553237E-03 -8.412023E+01 -1.826998E+00
       251 -6.821073E-01  3.746508E+01 -1.385412E-02
       252 -1.233805E-03  5.630252E+01 -1.129175E-04
       253  6.805627E-01  3.746638E+01 -3.449013E-02
       254 -2.154074E-03 -8.541986E+01  1.872001E+00
       255  3.504258E-06 -1.657032E+00 -6.458612E-05
       256  8.988715E-07 -3.564036E+00  9.563276E-01
       257  7.716645E-06 -3.564101E+00 -2.837062E-05
       258 -6.931118E-07  4.200660E+00  2.543083E-05
       259 -7.379159E-06 -3.564101E+00 -2.866331E-05
       260  1.799576E-06 -3.564180E+00 -9.563403E-01
       261 -5.330753E-07 -3.180180E+00 -9.961014E-06

 displacements (vx,vy,vz) for set NALL and time  0.1600000E-01

         5  0.000000E+00  0.000000E+00  0.000000E+00
         6  0.000000E+00  0.000000E+00  0.000000E+00
         7  0.000000E+00  0.000000E+00  0.000000E+00
         8  0.000000E+00  0.000000E+00  0.000000E+00
        21  0.000000E+00  0.000000E+00  0.000000E+00
        22  0.000000E+00  0.000000E+00  0.000000E+00
        23  0.000000E+00  0.000000E+00  0.000000E+00
        24  0.000000E+00  0.000000E+00  0.000000E+00
        25  0.000000E+00  0.000000E+00  0.000000E+00
        26  0.000000E+00  0.000000E+00  0.000000E+00
        27  0.000000E+00  0.000000E+00  0.000000E+00
        28  0.000000E+00  0.000000E+00  0.000000E+00
        29  0.000000E+00  0.000000E+00  0.000000E+00
        30  0.000000E+00  0.000000E+00  0.000000E+00
        31  0.000000E+00  0.000000E+00  0.000000E+00
        32  0.000000E+00  0.000000E+00  0.000000E+00
        44 -7.607833E-05  1.005651E-03 -1.436130E-04
        45 -1.331757E-05  7.778839E-04 -2.311305E-04
        46  2.184998E-05  5.565593E-04 -2.658233E-04
        47 -3.565808E-05  2.243370E-04 -1.741460E-04
        48  3.571419E-05  2.244279E-04 -1.745452E-04
        49 -2.204387E-05  5.567078E-04 -2.663656E-04
        50  1.467412E-05  7.776524E-04 -2.309153E-04
        51  7.759931E-05  1.003921E-03 -1.434182E-04
        74  9.227337E-05  9.890033E-04  1.438781E-04
        75  2.259684E-05  7.689154E-04  2.315785E-04
        76 -2.379507E-05  5.590998E-04  2.662777E-04
        77  3.355824E-05  2.267462E-04  1.744083E-04
        89 -9.070703E-05  9.906530E-04  1.439996E-04
        90 -2.127739E-05  7.692025E-04  2.317909E-04
        91  2.363258E-05  5.589171E-04  2.657750E-04
        92 -3.350368E-05  2.266599E-04  1.740401E-04
        98  0.000000E+00  0.000000E+00  0.000000E+00
        99  0.000000E+00  0.000000E+00  0.000000E+00
       100  0.000000E+00  0.000000E+00  0.000000E+00
       101  0.000000E+00  0.000000E+00  0.000000E+00
       102  0.000000E+00  0.000000E+00  0.000000E+00
       124 -7.428549E-06  9.043674E-04 -1.357248E-04
       125  1.398955E-06  1.091522E-03 -1.413922E-04
       126  9.282173E-06  9.045210E-04 -1.351334E-04
       127  1.612899E-07  7.975957E-04 -2.556475E-04
       128  5.904111E-07  5.908431E-04 -2.850327E-04
       129  3.609837E-07  5.476499E-04 -2.897317E-04
       130 -2.450147E-07  5.909083E-04 -2.849357E-04
       131 -3.426714E-08  2.314407E-04 -1.699540E-04
       153  7.084569E-05  1.184392E-03 -6.338236E-05
       154  2.713421E-06  1.037517E-03 -1.720200E-07
       155 -7.440013E-05  1.159872E-03  6.415036E-05
       156 -1.323478E-07  8.680014E-04 -7.181716E-07
       157 -1.399660E-05  4.833662E-04 -1.146240E-04
       158 -6.035447E-07  4.943241E-04 -1.220605E-07
       159  1.524383E-05  4.882934E-04  1.149506E-04
       160  2.240710E-07  1.888981E-04  6.955931E-08
       182  1.660251E-05  9.101931E-04  1.356525E-04
       183  1.338550E-06  1.085157E-03  1.420193E-04
       184 -1.478488E-05  9.103174E-04  1.351565E-04
       185  1.877621E-07  7.975245E-04  2.573577E-04
       186 -4.121499E-06  5.897275E-04  2.849775E-04
       187  3.469735E-07  5.497612E-04  2.902606E-04
       188  4.468108E-06  5.897746E-04  2.848746E-04
       189 -3.130841E-08  2.313746E-04  1.699029E-04
       211  7.528174E-05  1.161175E-03  6.346018E-05
       212 -1.541937E-06  1.037587E-03  7.637749E-07
       213 -6.996949E-05  1.183119E-03 -6.418983E-05
       214  4.451971E-07  8.679720E-04 -1.042624E-06
       215 -1.493642E-05  4.881275E-04  1.147927E-04
       216  1.177568E-06  4.943467E-04 -5.220750E-07
       217  1.428617E-05  4.835378E-04 -1.147708E-04
       218 -1.441987E-07  1.888959E-04 -3.099087E-08
       250  6.070109E-07  1.177312E-03 -6.301510E-05
       251  9.562477E-06  7.416497E-04  8.416469E-07