    1C
    1UUSER                                                              
    1UDATE              12.july.2018                                    
    1UTIME              17:03:03                                        
    1UHOST                                                              
    1UPGM               CalculiX                                        
    1UVERSION           Version 2.13                             
    1UCOMPILETIME       jue jun 14 00:40:39 CEST 2018                    
    1UDIR                                                               
    1UDBN                                                               
    1UMAT    1EL                                                        
    2C                           201                                     1
 -1         1 0.00000E+00 0.00000E+00 0.00000E+00
 -1         2 1.00000E+00 0.00000E+00 0.00000E+00
 -1         3 1.00000E+00 1.00000E+00 0.00000E+00
 -1         4 0.00000E+00 1.00000E+00 0.00000E+00
 -1         9 2.50000E-01 0.00000E+00 0.00000E+00
 -1        10 5.00000E-01 0.00000E+00 0.00000E+00
 -1        11 7.50000E-01 0.00000E+00 0.00000E+00
 -1        12 1.00000E+00 2.50000E-01 0.00000E+00
 -1        13 1.00000E+00 5.00000E-01 0.00000E+00
 -1        14 1.00000E+00 7.50000E-01 0.00000E+00
 -1        15 7.50000E-01 1.00000E+00 0.00000E+00
 -1        16 5.00000E-01 1.00000E+00 0.00000E+00
 -1        17 2.50000E-01 1.00000E+00 0.00000E+00
 -1        18 0.00000E+00 7.50000E-01 0.00000E+00
 -1        19 0.00000E+00 5.00000E-01 0.00000E+00
 -1        20 0.00000E+00 2.50000E-01 0.00000E+00
 -1        33 1.00000E+00 0.00000E+00 5.00000E-01
 -1        34 1.00000E+00 0.00000E+00 1.00000E+00
 -1        35 1.00000E+00 0.00000E+00 1.50000E+00
 -1        36 1.00000E+00 0.00000E+00 2.00000E+00
 -1        37 1.00000E+00 0.00000E+00 2.50000E+00
 -1        38 1.00000E+00 0.00000E+00 3.00000E+00
 -1        39 1.00000E+00 0.00000E+00 3.50000E+00
 -1        40 1.00000E+00 0.00000E+00 4.00000E+00
 -1        41 1.00000E+00 0.00000E+00 4.50000E+00
 -1        42 1.00000E+00 0.00000E+00 5.00000E+00
 -1        43 1.00000E+00 0.00000E+00 5.50000E+00
 -1        44 1.00000E+00 0.00000E+00 6.00000E+00
 -1        51 0.00000E+00 0.00000E+00 6.00000E+00
 -1        52 0.00000E+00 0.00000E+00 5.50000E+00
 -1        53 0.00000E+00 0.00000E+00 5.00000E+00
 -1        54 0.00000E+00 0.00000E+00 4.50000E+00
 -1        55 0.00000E+00 0.00000E+00 4.00000E+00
 -1        56 0.00000E+00 0.00000E+00 3.50000E+00
 -1        57 0.00000E+00 0.00000E+00 3.00000E+00
 -1        58 0.00000E+00 0.00000E+00 2.50000E+00
 -1        59 0.00000E+00 0.00000E+00 2.00000E+00
 -1        60 0.00000E+00 0.00000E+00 1.50000E+00
 -1        61 0.00000E+00 0.00000E+00 1.00000E+00
 -1        62 0.00000E+00 0.00000E+00 5.00000E-01
 -1        63 1.00000E+00 1.00000E+00 5.00000E-01
 -1        64 1.00000E+00 1.00000E+00 1.00000E+00
 -1        65 1.00000E+00 1.00000E+00 1.50000E+00
 -1        66 1.00000E+00 1.00000E+00 2.00000E+00
 -1        67 1.00000E+00 1.00000E+00 2.50000E+00
 -1        68 1.00000E+00 1.00000E+00 3.00000E+00
 -1        69 1.00000E+00 1.00000E+00 3.50000E+00
 -1        70 1.00000E+00 1.00000E+00 4.00000E+00
 -1        71 1.00000E+00 1.00000E+00 4.50000E+00
 -1        72 1.00000E+00 1.00000E+00 5.00000E+00
 -1        73 1.00000E+00 1.00000E+00 5.50000E+00
 -1        74 1.00000E+00 1.00000E+00 6.00000E+00
 -1        78 0.00000E+00 1.00000E+00 5.00000E-01
 -1        79 0.00000E+00 1.00000E+00 1.00000E+00
 -1        80 0.00000E+00 1.00000E+00 1.50000E+00
 -1        81 0.00000E+00 1.00000E+00 2.00000E+00
 -1        82 0.00000E+00 1.00000E+00 2.50000E+00
 -1        83 0.00000E+00 1.00000E+00 3.00000E+00
 -1        84 0.00000E+00 1.00000E+00 3.50000E+00
 -1        85 0.00000E+00 1.00000E+00 4.00000E+00
 -1        86 0.00000E+00 1.00000E+00 4.50000E+00
 -1        87 0.00000E+00 1.00000E+00 5.00000E+00
 -1        88 0.00000E+00 1.00000E+00 5.50000E+00
 -1        89 0.00000E+00 1.00000E+00 6.00000E+00
 -1        93 5.00000E-01 2.50000E-01 0.00000E+00
 -1        94 2.50000E-01 5.00000E-01 0.00000E+00
 -1        95 5.00000E-01 5.00000E-01 0.00000E+00
 -1        96 7.50000E-01 5.00000E-01 0.00000E+00
 -1        97 5.00000E-01 7.50000E-01 0.00000E+00
 -1       103 5.00000E-01 0.00000E+00 5.00000E-01
 -1       104 2.50000E-01 0.00000E+00 1.00000E+00
 -1       105 5.00000E-01 0.00000E+00 1.00000E+00
 -1       106 7.50000E-01 0.00000E+00 1.00000E+00
 -1       107 5.00000E-01 0.00000E+00 1.50000E+00
 -1       108 2.50000E-01 0.00000E+00 2.00000E+00
 -1       109 5.00000E-01 0.00000E+00 2.00000E+00
 -1       110 7.50000E-01 0.00000E+00 2.00000E+00
 -1       111 5.00000E-01 0.00000E+00 2.50000E+00
 -1       112 2.50000E-01 0.00000E+00 3.00000E+00
 -1       113 5.00000E-01 0.00000E+00 3.00000E+00
 -1       114 7.50000E-01 0.00000E+00 3.00000E+00
 -1       115 5.00000E-01 0.00000E+00 3.50000E+00
 -1       116 2.50000E-01 0.00000E+00 4.00000E+00
 -1       117 5.00000E-01 0.00000E+00 4.00000E+00
 -1       118 7.50000E-01 0.00000E+00 4.00000E+00
 -1       119 5.00000E-01 0.00000E+00 4.50000E+00
 -1       120 2.50000E-01 0.00000E+00 5.00000E+00
 -1       121 5.00000E-01 0.00000E+00 5.00000E+00
 -1       122 7.50000E-01 0.00000E+00 5.00000E+00
 -1       123 5.00000E-01 0.00000E+00 5.50000E+00
 -1       124 2.50000E-01 0.00000E+00 6.00000E+00
 -1       125 5.00000E-01 0.00000E+00 6.00000E+00
 -1       126 7.50000E-01 0.00000E+00 6.00000E+00
 -1       132 1.00000E+00 5.00000E-01 5.00000E-01
 -1       133 1.00000E+00 2.50000E-01 1.00000E+00
 -1       134 1.00000E+00 5.00000E-01 1.00000E+00
 -1       135 1.00000E+00 7.50000E-01 1.00000E+00
 -1       136 1.00000E+00 5.00000E-01 1.50000E+00
 -1       137 1.00000E+00 2.50000E-01 2.00000E+00
 -1       138 1.00000E+00 5.00000E-01 2.00000E+00
 -1       139 1.00000E+00 7.50000E-01 2.00000E+00
 -1       140 1.00000E+00 5.00000E-01 2.50000E+00
 -1       141 1.00000E+00 2.50000E-01 3.00000E+00
 -1       142 1.00000E+00 5.00000E-01 3.00000E+00
 -1       143 1.00000E+00 7.50000E-01 3.00000E+00
 -1       144 1.00000E+00 5.00000E-01 3.50000E+00
 -1       145 1.00000E+00 2.50000E-01 4.00000E+00
 -1       146 1.00000E+00 5.00000E-01 4.00000E+00
 -1       147 1.00000E+00 7.50000E-01 4.00000E+00
 -1       148 1.00000E+00 5.00000E-01 4.50000E+00
 -1       149 1.00000E+00 2.50000E-01 5.00000E+00
 -1       150 1.00000E+00 5.00000E-01 5.00000E+00
 -1       151 1.00000E+00 7.50000E-01 5.00000E+00
 -1       152 1.00000E+00 5.00000E-01 5.50000E+00
 -1       153 1.00000E+00 2.50000E-01 6.00000E+00
 -1       154 1.00000E+00 5.00000E-01 6.00000E+00
 -1       155 1.00000E+00 7.50000E-01 6.00000E+00
 -1       161 5.00000E-01 1.00000E+00 5.00000E-01
 -1       162 7.50000E-01 1.00000E+00 1.00000E+00
 -1       163 5.00000E-01 1.00000E+00 1.00000E+00
 -1       164 2.50000E-01 1.00000E+00 1.00000E+00
 -1       165 5.00000E-01 1.00000E+00 1.50000E+00
 -1       166 7.50000E-01 1.00000E+00 2.00000E+00
 -1       167 5.00000E-01 1.00000E+00 2.00000E+00
 -1       168 2.50000E-01 1.00000E+00 2.00000E+00
 -1       169 5.00000E-01 1.00000E+00 2.50000E+00
 -1       170 7.50000E-01 1.00000E+00 3.00000E+00
 -1       171 5.00000E-01 1.00000E+00 3.00000E+00
 -1       172 2.50000E-01 1.00000E+00 3.00000E+00
 -1       173 5.00000E-01 1.00000E+00 3.50000E+00
 -1       174 7.50000E-01 1.00000E+00 4.00000E+00
 -1       175 5.00000E-01 1.00000E+00 4.00000E+00
 -1       176 2.50000E-01 1.00000E+00 4.00000E+00
 -1       177 5.00000E-01 1.00000E+00 4.50000E+00
 -1       178 7.50000E-01 1.00000E+00 5.00000E+00
 -1       179 5.00000E-01 1.00000E+00 5.00000E+00
 -1       180 2.50000E-01 1.00000E+00 5.00000E+00
 -1       181 5.00000E-01 1.00000E+00 5.50000E+00
 -1       182 7.50000E-01 1.00000E+00 6.00000E+00
 -1       183 5.00000E-01 1.00000E+00 6.00000E+00
 -1       184 2.50000E-01 1.00000E+00 6.00000E+00
 -1       190 0.00000E+00 5.00000E-01 5.00000E-01
 -1       191 0.00000E+00 7.50000E-01 1.00000E+00
 -1       192 0.00000E+00 5.00000E-01 1.00000E+00
 -1       193 0.00000E+00 2.50000E-01 1.00000E+00
 -1       194 0.00000E+00 5.00000E-01 1.50000E+00
 -1       195 0.00000E+00 7.50000E-01 2.00000E+00
 -1       196 0.00000E+00 5.00000E-01 2.00000E+00
 -1       197 0.00000E+00 2.50000E-01 2.00000E+00
 -1       198 0.00000E+00 5.00000E-01 2.50000E+00
 -1       199 0.00000E+00 7.50000E-01 3.00000E+00
 -1       200 0.00000E+00 5.00000E-01 3.00000E+00
 -1       201 0.00000E+00 2.50000E-01 3.00000E+00
 -1       202 0.00000E+00 5.00000E-01 3.50000E+00
 -1       203 0.00000E+00 7.50000E-01 4.00000E+00
 -1       204 0.00000E+00 5.00000E-01 4.00000E+00
 -1       205 0.00000E+00 2.50000E-01 4.00000E+00
 -1       206 0.00000E+00 5.00000E-01 4.50000E+00
 -1       207 0.00000E+00 7.50000E-01 5.00000E+00
 -1       208 0.00000E+00 5.00000E-01 5.00000E+00
 -1       209 0.00000E+00 2.50000E-01 5.00000E+00
 -1       210 0.00000E+00 5.00000E-01 5.50000E+00
 -1       211 0.00000E+00 7.50000E-01 6.00000E+00
 -1       212 0.00000E+00 5.00000E-01 6.00000E+00
 -1       213 0.00000E+00 2.50000E-01 6.00000E+00
 -1       219 5.00000E-01 5.00000E-01 5.00000E-01
 -1       220 5.00000E-01 2.50000E-01 1.00000E+00
 -1       221 2.50000E-01 5.00000E-01 1.00000E+00
 -1       222 5.00000E-01 5.00000E-01 1.00000E+00
 -1       223 7.50000E-01 5.00000E-01 1.00000E+00
 -1       224 5.00000E-01 7.50000E-01 1.00000E+00
 -1       225 5.00000E-01 5.00000E-01 1.50000E+00
 -1       226 5.00000E-01 2.50000E-01 2.00000E+00
 -1       227 2.50000E-01 5.00000E-01 2.00000E+00
 -1       228 5.00000E-01 5.00000E-01 2.00000E+00
 -1       229 7.50000E-01 5.00000E-01 2.00000E+00
 -1       230 5.00000E-01 7.50000E-01 2.00000E+00
 -1       231 5.00000E-01 5.00000E-01 2.50000E+00
 -1       232 5.00000E-01 2.50000E-01 3.00000E+00
 -1       233 2.50000E-01 5.00000E-01 3.00000E+00
 -1       234 5.00000E-01 5.00000E-01 3.00000E+00
 -1       235 7.50000E-01 5.00000E-01 3.00000E+00
 -1       236 5.00000E-01 7.50000E-01 3.00000E+00
 -1       237 5.00000E-01 5.00000E-01 3.50000E+00
 -1       238 5.00000E-01 2.50000E-01 4.00000E+00
 -1       239 2.50000E-01 5.00000E-01 4.00000E+00
 -1       240 5.00000E-01 5.00000E-01 4.00000E+00
 -1       241 7.50000E-01 5.00000E-01 4.00000E+00
 -1       242 5.00000E-01 7.50000E-01 4.00000E+00
 -1       243 5.00000E-01 5.00000E-01 4.50000E+00
 -1       244 5.00000E-01 2.50000E-01 5.00000E+00
 -1       245 2.50000E-01 5.00000E-01 5.00000E+00
 -1       246 5.00000E-01 5.00000E-01 5.00000E+00
 -1       247 7.50000E-01 5.00000E-01 5.00000E+00
 -1       248 5.00000E-01 7.50000E-01 5.00000E+00
 -1       249 5.00000E-01 5.00000E-01 5.50000E+00
 -1       250 5.00000E-01 2.50000E-01 6.00000E+00
 -1       251 2.50000E-01 5.00000E-01 6.00000E+00
 -1       252 5.00000E-01 5.00000E-01 6.00000E+00
 -1       253 7.50000E-01 5.00000E-01 6.00000E+00
 -1       254 5.00000E-01 7.50000E-01 6.00000E+00
 -3
    3C                            24                                     1
 -1         1    4    0    1
 -2         1        10        95        19        61       105       222       192         9        93
 -2        94        20        62       103       219       190       104       220       221       193
 -1         2    4    0    1
 -2        10         2        13        95       105        34       134       222        11        12
 -2        96        93       103        33       132       219       106       133       223       220
 -1         3    4    0    1
 -2        19        95        16         4       192       222       163        79        94        97
 -2        17        18       190       219       161        78       221       224       164       191
 -1         4    4    0    1
 -2        95        13         3        16       222       134        64       163        96        14
 -2        15        97       219       132        63       161       223       135       162       224
 -1         5    4    0    1
 -2        61       105       222       192        59       109       228       196       104       220
 -2       221       193        60       107       225       194       108       226       227       197
 -1         6    4    0    1
 -2       105        34       134       222       109        36       138       228       106       133
 -2       223       220       107        35       136       225       110       137       229       226
 -1         7    4    0    1
 -2       192       222       163        79       196       228       167        81       221       224
 -2       164       191       194       225       165        80       227       230       168       195
 -1         8    4    0    1
 -2       222       134        64       163       228       138        66       167       223       135
 -2       162       224       225       136        65       165       229       139       166       230
 -1         9    4    0    1
 -2        59       109       228       196        57       113       234       200       108       226
 -2       227       197        58       111       231       198       112       232       233       201
 -1        10    4    0    1
 -2       109        36       138       228       113        38       142       234       110       137
 -2       229       226       111        37       140       231       114       141       235       232
 -1        11    4    0    1
 -2       196       228       167        81       200       234       171        83       227       230
 -2       168       195       198       231       169        82       233       236       172       199
 -1        12    4    0    1
 -2       228       138        66       167       234       142        68       171       229       139
 -2       166       230       231       140        67       169       235       143       170       236
 -1        13    4    0    1
 -2        57       113       234       200        55       117       240       204       112       232
 -2       233       201        56       115       237       202       116       238       239       205
 -1        14    4    0    1
 -2       113        38       142       234       117        40       146       240       114       141
 -2       235       232       115        39       144       237       118       145       241       238
 -1        15    4    0    1
 -2       200       234       171        83       204       240       175        85       233       236
 -2       172       199       202       237       173        84       239       242       176       203
 -1        16    4    0    1
 -2       234       142        68       171       240       146        70       175       235       143
 -2       170       236       237       144        69       173       241       147       174       242
 -1        17    4    0    1
 -2        55       117       240       204        53       121       246       208       116       238
 -2       239       205        54       119       243       206       120       244       245       209
 -1        18    4    0    1
 -2       117        40       146       240       121        42       150       246       118       145
 -2       241       238       119        41       148       243       122       149       247       244
 -1        19    4    0    1
 -2       204       240       175        85       208       246       179        87       239       242
 -2       176       203       206       243       177        86       245       248       180       207
 -1        20    4    0    1
 -2       240       146        70       175       246       150        72       179       241       147
 -2       174       242       243       148        71       177       247       151       178       248
 -1        21    4    0    1
 -2        53       121       246       208        51       125       252       212       120       244
 -2       245       209        52       123       249       210       124       250       251       213
 -1        22    4    0    1
 -2       121        42       150       246       125        44       154       252       122       149
 -2       247       244       123        43       152       249       126       153       253       250
 -1        23    4    0    1
 -2       208       246       179        87       212       252       183        89       245       248
 -2       180       207       210       249       181        88       251       254       184       211
 -1        24    4    0    1
 -2       246       150        72       179       252       154        74       183       247       151
 -2       178       248       249       152        73       181       253       155       182       254
 -3
    1PSTEP                         1           1           1          
  100CL  101 4.00000E-03         201                     1    1           1
 -4  DISP        4    1
 -5  D1          1    2    1    0
 -5  D2          1    2    2    0
 -5  D3          1    2    3    0
 -5  ALL         1    2    0    0    1ALL
 -1         1 0.00000E+00 0.00000E+00 0.00000E+00
 -1         2 0.00000E+00 0.00000E+00 0.00000E+00
 -1         3 0.00000E+00 0.00000E+00 0.00000E+00
 -1         4 0.00000E+00 0.00000E+00 0.00000E+00
 -1         9 0.00000E+00 0.00000E+00 0.00000E+00
 -1        10 0.00000E+00 0.00000E+00 0.00000E+00
 -1        11 0.00000E+00 0.00000E+00 0.00000E+00
 -1        12 0.00000E+00 0.00000E+00 0.00000E+00
 -1        13 0.00000E+00 0.00000E+00 0.00000E+00
 -1        14 0.00000E+00 0.00000E+00 0.00000E+00
 -1        15 0.00000E+00 0.00000E+00 0.00000E+00
 -1        16 0.00000E+00 0.00000E+00 0.00000E+00
 -1        17 0.00000E+00 0.00000E+00 0.00000E+00
 -1        18 0.00000E+00 0.00000E+00 0.00000E+00
 -1        19 0.00000E+00 0.00000E+00 0.00000E+00
 -1        20 0.00000E+00 0.00000E+00 0.00000E+00
 -1        33 5.48586E-05-1.35966E-04-1.76165E-04
 -1        34 2.58822E-05-4.14555E-04-3.19977E-04
 -1        35 2.16140E-05-8.39597E-04-4.13239E-04
 -1        36 5.26364E-06-1.30623E-03-4.56751E-04
 -1        37-6.26723E-06-1.81634E-03-4.58330E-04
 -1        38-2.16970E-05-2.27800E-03-4.18650E-04
 -1        39-3.69831E-05-2.71597E-03-3.07959E-04
 -1        40-2.44130E-05-2.92662E-03-1.39442E-04
 -1        41-5.55735E-05-3.01855E-03-2.52017E-05
 -1        42-4.21758E-05-3.03532E-03-3.83378E-05
 -1        43 5.44554E-05-2.75394E-03 2.16671E-05
 -1        44 8.01121E-05-2.72511E-03 2.64007E-04
 -1        51-8.00931E-05-2.72509E-03 2.63976E-04
 -1        52-5.44548E-05-2.75394E-03 2.16621E-05
 -1        53 4.21807E-05-3.03531E-03-3.83355E-05
 -1        54 5.55725E-05-3.01855E-03-2.52013E-05
 -1        55 2.44153E-05-2.92662E-03-1.39442E-04
 -1        56 3.69830E-05-2.71597E-03-3.07959E-04
 -1        57 2.16980E-05-2.27799E-03-4.18650E-04
 -1        58 6.26723E-06-1.81634E-03-4.58330E-04
 -1        59-5.26315E-06-1.30622E-03-4.56751E-04
 -1        60-2.16140E-05-8.39597E-04-4.13239E-04
 -1        61-2.58820E-05-4.14555E-04-3.19977E-04
 -1        62-5.48586E-05-1.35966E-04-1.76165E-04
 -1        63-5.39390E-05-1.35059E-04 1.74030E-04
 -1        64-2.58493E-05-4.15086E-04 3.15314E-04
 -1        65-2.04070E-05-8.38051E-04 4.06615E-04
 -1        66-6.04057E-06-1.31034E-03 4.47242E-04
 -1        67 8.60372E-06-1.81232E-03 4.47573E-04
 -1        68 2.12983E-05-2.29321E-03 4.03719E-04
 -1        69 3.97144E-05-2.70464E-03 2.90627E-04
 -1        70 3.58024E-05-2.97139E-03 1.18385E-04
 -1        71 4.57460E-05-2.97708E-03-2.82945E-06
 -1        72-2.02849E-06-2.97115E-03 1.81214E-06
 -1        73 1.47244E-05-2.86488E-03-6.09644E-05
 -1        74 5.78744E-06-2.98027E-03-2.94146E-04
 -1        78 5.39390E-05-1.35059E-04 1.74030E-04
 -1        79 2.58492E-05-4.15086E-04 3.15314E-04
 -1        80 2.04071E-05-8.38051E-04 4.06615E-04
 -1        81 6.04041E-06-1.31034E-03 4.47242E-04
 -1        82-8.60328E-06-1.81232E-03 4.47573E-04
 -1        83-2.12988E-05-2.29321E-03 4.03719E-04
 -1        84-3.97136E-05-2.70464E-03 2.90627E-04
 -1        85-3.58039E-05-2.97139E-03 1.18385E-04
 -1        86-4.57442E-05-2.97708E-03-2.82989E-06
 -1        87 2.02438E-06-2.97115E-03 1.80977E-06
 -1        88-1.47241E-05-2.86488E-03-6.09595E-05
 -1        89-5.80547E-06-2.98025E-03-2.94114E-04
 -1        93 0.00000E+00 0.00000E+00 0.00000E+00
 -1        94 0.00000E+00 0.00000E+00 0.00000E+00
 -1        95 0.00000E+00 0.00000E+00 0.00000E+00
 -1        96 0.00000E+00 0.00000E+00 0.00000E+00
 -1        97 0.00000E+00 0.00000E+00 0.00000E+00
 -1       103 1.50129E-11-1.57410E-04-1.72571E-04
 -1       104-1.27730E-05-4.33286E-04-3.25801E-04
 -1       105-2.00405E-11-4.37899E-04-3.28467E-04
 -1       106 1.27731E-05-4.33286E-04-3.25801E-04
 -1       107 9.37119E-11-8.44372E-04-4.14632E-04
 -1       108-2.51405E-06-1.31611E-03-4.61461E-04
 -1       109-4.19420E-11-1.33223E-03-4.62640E-04
 -1       110 2.51423E-06-1.31611E-03-4.61461E-04
 -1       111 2.10383E-10-1.79604E-03-4.61152E-04
 -1       112 1.01568E-05-2.31137E-03-4.24990E-04
 -1       113-1.96466E-10-2.32350E-03-4.29094E-04
 -1       114-1.01564E-05-2.31137E-03-4.24990E-04
 -1       115 4.39627E-10-2.66340E-03-3.03847E-04
 -1       116 1.51950E-05-2.96926E-03-1.47431E-04
 -1       117-4.84888E-10-3.11933E-03-1.46442E-04
 -1       118-1.51945E-05-2.96926E-03-1.47431E-04
 -1       119 7.71225E-10-2.93118E-03-2.57992E-05
 -1       120 1.47638E-05-3.11896E-03-3.90548E-05
 -1       121-1.55210E-09-3.05715E-03-7.22006E-05
 -1       122-1.47622E-05-3.11896E-03-3.90544E-05
 -1       123 2.76802E-09-2.80457E-03 8.55872E-05
 -1       124-1.04235E-05-2.50316E-03 2.25023E-04
 -1       125 3.67294E-09-2.76511E-03 2.62918E-04
 -1       126 1.04353E-05-2.50317E-03 2.25035E-04
 -1       132 3.50773E-07-1.03254E-04-1.10458E-06
 -1       133 1.34202E-05-4.06960E-04-1.51639E-04
 -1       134 4.60590E-07-4.13710E-04-1.86070E-06
 -1       135-1.29340E-05-4.07375E-04 1.47402E-04
 -1       136 1.62693E-07-8.21059E-04-3.57227E-06
 -1       137 2.63155E-06-1.31270E-03-2.25122E-04
 -1       138 1.13932E-06-1.31450E-03-4.01562E-06
 -1       139-2.12753E-06-1.31418E-03 2.16404E-04
 -1       140-2.32106E-07-1.81786E-03-6.28336E-06
 -1       141-9.08621E-06-2.28687E-03-1.96713E-04
 -1       142 8.88388E-07-2.31035E-03-3.61885E-06
 -1       143 1.02946E-05-2.29681E-03 1.85318E-04
 -1       144-2.08503E-06-2.71287E-03-8.20491E-06
 -1       145-2.27142E-05-2.99089E-03-8.70151E-05
 -1       146-5.26626E-06-2.96621E-03-1.43011E-05
 -1       147 1.73019E-05-3.00502E-03 6.25598E-05
 -1       148 7.06787E-06-3.01686E-03-1.33365E-05
 -1       149 6.65878E-06-2.87454E-03-1.21922E-05
 -1       150 2.05791E-05-2.96071E-03-1.13668E-05
 -1       151-8.97652E-06-2.85649E-03-1.62969E-05
 -1       152-3.20012E-05-2.85935E-03-1.57877E-05
 -1       153-3.89414E-05-3.14754E-03 1.24009E-04
 -1       154-1.42114E-05-2.65223E-03-2.20833E-06
 -1       155 6.48622E-05-3.22999E-03-1.55690E-04
 -1       161-3.96724E-12-1.56885E-04 1.70218E-04
 -1       162-1.27224E-05-4.32629E-04 3.21330E-04
 -1       163 6.73614E-11-4.36250E-04 3.24125E-04
 -1       164 1.27224E-05-4.32629E-04 3.21329E-04
 -1       165 6.40023E-12-8.44153E-04 4.07896E-04
 -1       166-3.05160E-06-1.31508E-03 4.52987E-04
 -1       167 2.01590E-10-1.32552E-03 4.55463E-04
 -1       168 3.05174E-06-1.31508E-03 4.52987E-04
 -1       169 1.99761E-11-1.80053E-03 4.47580E-04
 -1       170 1.08847E-05-2.30518E-03 4.10614E-04
 -1       171 4.90258E-10-2.29850E-03 4.13643E-04
 -1       172-1.08845E-05-2.30518E-03 4.10614E-04
 -1       173-8.41540E-11-2.67562E-03 2.87211E-04
 -1       174 1.69484E-05-2.92497E-03 1.26969E-04
 -1       175 8.89511E-10-2.98377E-03 1.32508E-04
 -1       176-1.69480E-05-2.92497E-03 1.26969E-04
 -1       177-3.35003E-10-2.92801E-03-1.10389E-05
 -1       178 4.55827E-06-3.13435E-03-1.70010E-06
 -1       179 2.05020E-09-2.99201E-03 1.71986E-05
 -1       180-4.55902E-06-3.13435E-03-1.69980E-06
 -1       181-2.37971E-09-2.85457E-03-9.90281E-05
 -1       182-8.83110E-06-2.41451E-03-2.52802E-04
 -1       183-3.18724E-09-2.99899E-03-3.03745E-04
 -1       184 8.82056E-06-2.41450E-03-2.52790E-04
 -1       190-3.50755E-07-1.03254E-04-1.10456E-06
 -1       191 1.29340E-05-4.07375E-04 1.47402E-04
 -1       192-4.60537E-07-4.13710E-04-1.86066E-06
 -1       193-1.34200E-05-4.06960E-04-1.51639E-04
 -1       194-1.62588E-07-8.21059E-04-3.57222E-06
 -1       195 2.12754E-06-1.31418E-03 2.16404E-04
 -1       196-1.13914E-06-1.31450E-03-4.01556E-06
 -1       197-2.63122E-06-1.31270E-03-2.25122E-04
 -1       198 2.32330E-07-1.81786E-03-6.28329E-06
 -1       199-1.02947E-05-2.29681E-03 1.85318E-04
 -1       200-8.88096E-07-2.31035E-03-3.61879E-06
 -1       201 9.08690E-06-2.28687E-03-1.96713E-04
 -1       202 2.08539E-06-2.71287E-03-8.20485E-06
 -1       203-1.73025E-05-3.00502E-03 6.25595E-05
 -1       204 5.26669E-06-2.96621E-03-1.43010E-05
 -1       205 2.27155E-05-2.99089E-03-8.70147E-05
 -1       206-7.06749E-06-3.01686E-03-1.33365E-05
 -1       207 8.97463E-06-2.85649E-03-1.62966E-05
 -1       208-2.05788E-05-2.96071E-03-1.13668E-05
 -1       209-6.65601E-06-2.87454E-03-1.21925E-05
 -1       210 3.20018E-05-2.85935E-03-1.57878E-05
 -1       211-6.48728E-05-3.22998E-03-1.55678E-04
 -1       212 1.42120E-05-2.65222E-03-2.20839E-06
 -1       213 3.89525E-05-3.14753E-03 1.23997E-04
 -1       219 7.38235E-12-1.26019E-04-9.28565E-07
 -1       220 3.25517E-12-4.24051E-04-1.57197E-04
 -1       221-2.49433E-07-4.25506E-04-2.33795E-06
 -1       222 2.53190E-11-4.24263E-04-2.66624E-06
 -1       223 2.49484E-07-4.25506E-04-2.33797E-06
 -1       224 4.65330E-11-4.23089E-04 1.52681E-04
 -1       225 5.18985E-11-8.35216E-04-3.12838E-06
 -1       226 1.86054E-11-1.31915E-03-2.30584E-04
 -1       227-4.84032E-07-1.30902E-03-4.51691E-06
 -1       228 8.11855E-11-1.30452E-03-5.63180E-06
 -1       229 4.84198E-07-1.30902E-03-4.51694E-06
 -1       230 1.43141E-10-1.31622E-03 2.20390E-04
 -1       231 1.16529E-10-1.82294E-03-4.58447E-06
 -1       232-1.86098E-11-2.29413E-03-2.05054E-04
 -1       233-5.15493E-07-2.28852E-03-8.72325E-06
 -1       234 1.46658E-10-2.26664E-03-1.14424E-05
 -1       235 5.15789E-07-2.28852E-03-8.72328E-06
 -1       236 3.10975E-10-2.27951E-03 1.89893E-04
 -1       237 1.78533E-10-2.71911E-03-3.89953E-06
 -1       238-1.54993E-10-3.03101E-03-9.53032E-05
 -1       239 4.18105E-06-2.91534E-03-9.33497E-06
 -1       240 1.98607E-10-2.89845E-03-1.08704E-05
 -1       241-4.18065E-06-2.91534E-03-9.33500E-06
 -1       242 5.61418E-10-2.96951E-03 6.84283E-05
 -1       243 2.17129E-10-3.03279E-03-1.92469E-05
 -1       244-5.75220E-10-2.84200E-03-7.23056E-06
 -1       245-6.60555E-06-2.94659E-03-2.23290E-05
 -1       246 2.17289E-10-2.79641E-03-1.65444E-05
 -1       247 6.60596E-06-2.94659E-03-2.23291E-05
 -1       248 1.02221E-09-2.80281E-03-8.48080E-06
 -1       249 1.96977E-10-2.96513E-03-1.32304E-05
 -1       250 3.12185E-09-2.81609E-03 3.46119E-05
 -1       251-8.18020E-06-2.15900E-03 2.03213E-05
 -1       252 1.59511E-10-2.20546E-03 2.63971E-06
 -1       253 8.18052E-06-2.15901E-03 2.03214E-05
 -1       254-2.67083E-09-2.95090E-03-1.51283E-04
 -3
    1PSTEP                         2           2           1          
  100CL  102 8.00000E-03         201                     1    2           1
 -4  DISP        4    1
 -5  D1          1    2    1    0
 -5  D2          1    2    2    0
 -5  D3          1    2    3    0
 -5  ALL         1    2    0    0    1ALL
 -1         1 0.00000E+00 0.00000E+00 0.00000E+00
 -1         2 0.00000E+00 0.00000E+00 0.00000E+00
 -1         3 0.00000E+00 0.00000E+00 0.00000E+00
 -1         4 0.00000E+00 0.00000E+00 0.00000E+00
 -1         9 0.00000E+00 0.00000E+00 0.00000E+00
 -1        10 0.00000E+00 0.00000E+00 0.00000E+00
 -1        11 0.00000E+00 0.00000E+00 0.00000E+00
 -1        12 0.00000E+00 0.00000E+00 0.00000E+00
 -1        13 0.00000E+00 0.00000E+00 0.00000E+00
 -1        14 0.00000E+00 0.00000E+00 0.00000E+00
 -1        15 0.00000E+00 0.00000E+00 0.00000E+00
 -1        16 0.00000E+00 0.00000E+00 0.00000E+00
 -1        17 0.00000E+00 0.00000E+00 0.00000E+00
 -1        18 0.00000E+00 0.00000E+00 0.00000E+00
 -1        19 0.00000E+00 0.00000E+00 0.00000E+00
 -1        20 0.00000E+00 0.00000E+00 0.00000E+00
 -1        33-1.90558E-05 4.81910E-05 6.17955E-05
 -1        34-9.12498E-06 1.49297E-04 1.12208E-04
 -1        35-7.17233E-06 2.96908E-04 1.43821E-04
 -1        36-2.22672E-06 4.67602E-04 1.58242E-04
 -1        37 4.20470E-06 6.41179E-04 1.56348E-04
 -1        38 8.98379E-06 8.21183E-04 1.40605E-04
 -1        39 1.34784E-05 9.43882E-04 9.76086E-05
 -1        40 1.37177E-05 1.05512E-03 3.48765E-05
 -1        41 2.15198E-05 1.04332E-03-1.60026E-05
 -1        42 1.52577E-05 1.06330E-03-1.64764E-05
 -1        43-2.16583E-05 9.12694E-04-4.27660E-05
 -1        44-6.95786E-05 8.77945E-04-1.17534E-04
 -1        51 6.97397E-05 8.78105E-04-1.17800E-04
 -1        52 2.16583E-05 9.12693E-04-4.28128E-05
 -1        53-1.52169E-05 1.06334E-03-1.64522E-05
 -1        54-2.15337E-05 1.04330E-03-1.59981E-05
 -1        55-1.37000E-05 1.05513E-03 3.48778E-05
 -1        56-1.34824E-05 9.43878E-04 9.76049E-05
 -1        57-8.97711E-06 8.21190E-04 1.40608E-04
 -1        58-4.20682E-06 6.41177E-04 1.56348E-04
 -1        59 2.22964E-06 4.67605E-04 1.58243E-04
 -1        60 7.17163E-06 2.96907E-04 1.43821E-04
 -1        61 9.12596E-06 1.49298E-04 1.12209E-04
 -1        62 1.90556E-05 4.81908E-05 6.17953E-05
 -1        63 1.93718E-05 4.84226E-05-6.25015E-05
 -1        64 9.20503E-06 1.49042E-04-1.13712E-04
 -1        65 7.45385E-06 2.97601E-04-1.46065E-04
 -1        66 1.97088E-06 4.67019E-04-1.61519E-04
 -1        67-3.17494E-06 6.41491E-04-1.59964E-04
 -1        68-7.88511E-06 8.14443E-04-1.45087E-04
 -1        69-1.44702E-05 9.50572E-04-1.03372E-04
 -1        70-1.17720E-05 1.05095E-03-4.27357E-05
 -1        71-1.94193E-05 1.04236E-03 5.99261E-06
 -1        72-4.51290E-06 1.04320E-03 7.97559E-06
 -1        73 7.55630E-06 9.36940E-04 3.46587E-05
 -1        74 5.71202E-05 9.39382E-04 1.10293E-04
 -1        78-1.93716E-05 4.84223E-05-6.25012E-05