    1C
    1UUSER                                                              
    1UDATE              12.july.2018                                    
    1UTIME              17:01:28                                        
    1UHOST                                                              
    1UPGM               CalculiX                                        
    1UVERSION           Version 2.13                             
    1UCOMPILETIME       jue jun 14 00:40:39 CEST 2018                    
    1UDIR                                                               
    1UDBN                                                               
    1UMAT    1EL                                                        
    2C                            81                                     1
 -1         5 0.00000E+00 0.00000E+00 8.00000E+00
 -1         6 1.00000E+00 0.00000E+00 8.00000E+00
 -1         7 1.00000E+00 1.00000E+00 8.00000E+00
 -1         8 0.00000E+00 1.00000E+00 8.00000E+00
 -1        21 2.50000E-01 0.00000E+00 8.00000E+00
 -1        22 5.00000E-01 0.00000E+00 8.00000E+00
 -1        23 7.50000E-01 0.00000E+00 8.00000E+00
 -1        24 1.00000E+00 2.50000E-01 8.00000E+00
 -1        25 1.00000E+00 5.00000E-01 8.00000E+00
 -1        26 1.00000E+00 7.50000E-01 8.00000E+00
 -1        27 7.50000E-01 1.00000E+00 8.00000E+00
 -1        28 5.00000E-01 1.00000E+00 8.00000E+00
 -1        29 2.50000E-01 1.00000E+00 8.00000E+00
 -1        30 0.00000E+00 7.50000E-01 8.00000E+00
 -1        31 0.00000E+00 5.00000E-01 8.00000E+00
 -1        32 0.00000E+00 2.50000E-01 8.00000E+00
 -1        44 1.00000E+00 0.00000E+00 6.00000E+00
 -1        45 1.00000E+00 0.00000E+00 6.50000E+00
 -1        46 1.00000E+00 0.00000E+00 7.00000E+00
 -1        47 1.00000E+00 0.00000E+00 7.50000E+00
 -1        48 0.00000E+00 0.00000E+00 7.50000E+00
 -1        49 0.00000E+00 0.00000E+00 7.00000E+00
 -1        50 0.00000E+00 0.00000E+00 6.50000E+00
 -1        51 0.00000E+00 0.00000E+00 6.00000E+00
 -1        74 1.00000E+00 1.00000E+00 6.00000E+00
 -1        75 1.00000E+00 1.00000E+00 6.50000E+00
 -1        76 1.00000E+00 1.00000E+00 7.00000E+00
 -1        77 1.00000E+00 1.00000E+00 7.50000E+00
 -1        89 0.00000E+00 1.00000E+00 6.00000E+00
 -1        90 0.00000E+00 1.00000E+00 6.50000E+00
 -1        91 0.00000E+00 1.00000E+00 7.00000E+00
 -1        92 0.00000E+00 1.00000E+00 7.50000E+00
 -1        98 5.00000E-01 2.50000E-01 8.00000E+00
 -1        99 2.50000E-01 5.00000E-01 8.00000E+00
 -1       100 5.00000E-01 5.00000E-01 8.00000E+00
 -1       101 7.50000E-01 5.00000E-01 8.00000E+00
 -1       102 5.00000E-01 7.50000E-01 8.00000E+00
 -1       124 2.50000E-01 0.00000E+00 6.00000E+00
 -1       125 5.00000E-01 0.00000E+00 6.00000E+00
 -1       126 7.50000E-01 0.00000E+00 6.00000E+00
 -1       127 5.00000E-01 0.00000E+00 6.50000E+00
 -1       128 2.50000E-01 0.00000E+00 7.00000E+00
 -1       129 5.00000E-01 0.00000E+00 7.00000E+00
 -1       130 7.50000E-01 0.00000E+00 7.00000E+00
 -1       131 5.00000E-01 0.00000E+00 7.50000E+00
 -1       153 1.00000E+00 2.50000E-01 6.00000E+00
 -1       154 1.00000E+00 5.00000E-01 6.00000E+00
 -1       155 1.00000E+00 7.50000E-01 6.00000E+00
 -1       156 1.00000E+00 5.00000E-01 6.50000E+00
 -1       157 1.00000E+00 2.50000E-01 7.00000E+00
 -1       158 1.00000E+00 5.00000E-01 7.00000E+00
 -1       159 1.00000E+00 7.50000E-01 7.00000E+00
 -1       160 1.00000E+00 5.00000E-01 7.50000E+00
 -1       182 7.50000E-01 1.00000E+00 6.00000E+00
 -1       183 5.00000E-01 1.00000E+00 6.00000E+00
 -1       184 2.50000E-01 1.00000E+00 6.00000E+00
 -1       185 5.00000E-01 1.00000E+00 6.50000E+00
 -1       186 7.50000E-01 1.00000E+00 7.00000E+00
 -1       187 5.00000E-01 1.00000E+00 7.00000E+00
 -1       188 2.50000E-01 1.00000E+00 7.00000E+00
 -1       189 5.00000E-01 1.00000E+00 7.50000E+00
 -1       211 0.00000E+00 7.50000E-01 6.00000E+00
 -1       212 0.00000E+00 5.00000E-01 6.00000E+00
 -1       213 0.00000E+00 2.50000E-01 6.00000E+00
 -1       214 0.00000E+00 5.00000E-01 6.50000E+00
 -1       215 0.00000E+00 7.50000E-01 7.00000E+00
 -1       216 0.00000E+00 5.00000E-01 7.00000E+00
 -1       217 0.00000E+00 2.50000E-01 7.00000E+00
 -1       218 0.00000E+00 5.00000E-01 7.50000E+00
 -1       250 5.00000E-01 2.50000E-01 6.00000E+00
 -1       251 2.50000E-01 5.00000E-01 6.00000E+00
 -1       252 5.00000E-01 5.00000E-01 6.00000E+00
 -1       253 7.50000E-01 5.00000E-01 6.00000E+00
 -1       254 5.00000E-01 7.50000E-01 6.00000E+00
 -1       255 5.00000E-01 5.00000E-01 6.50000E+00
 -1       256 5.00000E-01 2.50000E-01 7.00000E+00
 -1       257 2.50000E-01 5.00000E-01 7.00000E+00
 -1       258 5.00000E-01 5.00000E-01 7.00000E+00
 -1       259 7.50000E-01 5.00000E-01 7.00000E+00
 -1       260 5.00000E-01 7.50000E-01 7.00000E+00
 -1       261 5.00000E-01 5.00000E-01 7.50000E+00
 -3
    3C                             8                                     1
 -1        25    4    0    1
 -2        51       125       252       212        49       129       258       216       124       250
 -2       251       213        50       127       255       214       128       256       257       217
 -1        26    4    0    1
 -2       125        44       154       252       129        46       158       258       126       153
 -2       253       250       127        45       156       255       130       157       259       256
 -1        27    4    0    1
 -2       212       252       183        89       216       258       187        91       251       254
 -2       184       211       214       255       185        90       257       260       188       215
 -1        28    4    0    1
 -2       252       154        74       183       258       158        76       187       253       155
 -2       182       254       255       156        75       185       259       159       186       260
 -1        29    4    0    1
 -2        49       129       258       216         5        22       100        31       128       256
 -2       257       217        48       131       261       218        21        98        99        32
 -1        30    4    0    1
 -2       129        46       158       258        22         6        25       100       130       157
 -2       259       256       131        47       160       261        23        24       101        98
 -1        31    4    0    1
 -2       216       258       187        91        31       100        28         8       257       260
 -2       188       215       218       261       189        92        99       102        29        30
 -1        32    4    0    1
 -2       258       158        76       187       100        25         7        28       259       159
 -2       186       260       261       160        77       189       101        26        27       102
 -3
    1PSTEP                         1           1           1          
  100CL  101 4.00000E-03          81                     1    1           1
 -4  DISP        4    1
 -5  D1          1    2    1    0
 -5  D2          1    2    2    0
 -5  D3          1    2    3    0
 -5  ALL         1    2    0    0    1ALL
 -1         5 0.00000E+00 0.00000E+00 0.00000E+00
 -1         6 0.00000E+00 0.00000E+00 0.00000E+00
 -1         7 0.00000E+00 0.00000E+00 0.00000E+00
 -1         8 0.00000E+00 0.00000E+00 0.00000E+00
 -1        21 0.00000E+00 0.00000E+00 0.00000E+00
 -1        22 0.00000E+00 0.00000E+00 0.00000E+00
 -1        23 0.00000E+00 0.00000E+00 0.00000E+00
 -1        24 0.00000E+00 0.00000E+00 0.00000E+00
 -1        25 0.00000E+00 0.00000E+00 0.00000E+00
 -1        26 0.00000E+00 0.00000E+00 0.00000E+00
 -1        27 0.00000E+00 0.00000E+00 0.00000E+00
 -1        28 0.00000E+00 0.00000E+00 0.00000E+00
 -1        29 0.00000E+00 0.00000E+00 0.00000E+00
 -1        30 0.00000E+00 0.00000E+00 0.00000E+00
 -1        31 0.00000E+00 0.00000E+00 0.00000E+00
 -1        32 0.00000E+00 0.00000E+00 0.00000E+00
 -1        44 8.38661E-05-2.72088E-03 2.70789E-04
 -1        45-1.85639E-05-2.18069E-03 5.81030E-04
 -1        46-5.50802E-05-1.64506E-03 6.95097E-04
 -1        47 9.24853E-05-6.97193E-04 4.79398E-04
 -1        48-9.24855E-05-6.97193E-04 4.79398E-04
 -1        49 5.50824E-05-1.64506E-03 6.95098E-04
 -1        50 1.85625E-05-2.18069E-03 5.81022E-04
 -1        51-8.38496E-05-2.72086E-03 2.70762E-04
 -1        74 1.13961E-06-2.97405E-03-3.01070E-04
 -1        75 5.43358E-05-2.27024E-03-6.10528E-04
 -1        76 2.13834E-05-1.64605E-03-7.16294E-04
 -1        77-1.22961E-04-6.43661E-04-4.91091E-04
 -1        89-1.15501E-06-2.97403E-03-3.01043E-04
 -1        90-5.43337E-05-2.27024E-03-6.10521E-04
 -1        91-2.13854E-05-1.64604E-03-7.16294E-04
 -1        92 1.22961E-04-6.43661E-04-4.91092E-04
 -1        98 0.00000E+00 0.00000E+00 0.00000E+00
 -1        99 0.00000E+00 0.00000E+00 0.00000E+00
 -1       100 0.00000E+00 0.00000E+00 0.00000E+00
 -1       101 0.00000E+00 0.00000E+00 0.00000E+00
 -1       102 0.00000E+00 0.00000E+00 0.00000E+00
 -1       124-1.33130E-05-2.49523E-03 2.22148E-04
 -1       125 3.33440E-09-2.75033E-03 2.59304E-04
 -1       126 1.33233E-05-2.49524E-03 2.22159E-04
 -1       127-5.17520E-10-2.17835E-03 5.51181E-04
 -1       128 2.47690E-05-1.68694E-03 7.30488E-04
 -1       129 1.90424E-10-1.61483E-03 7.26726E-04
 -1       130-2.47677E-05-1.68694E-03 7.30489E-04
 -1       131 7.40574E-11-7.06589E-04 4.63792E-04
 -1       153-3.87714E-05-3.13758E-03 1.19684E-04
 -1       154-2.27869E-05-2.63862E-03-1.50173E-05
 -1       155 5.54495E-05-3.21911E-03-1.63577E-04
 -1       156-1.54258E-05-2.28167E-03-3.36185E-05
 -1       157 5.65426E-06-1.50693E-03 2.79393E-04
 -1       158 2.85319E-05-1.60686E-03-9.09892E-06
 -1       159 3.30953E-05-1.52765E-03-2.93326E-04
 -1       160 1.38910E-05-6.30054E-04 7.77735E-06
 -1       182-1.23600E-05-2.40497E-03-2.60159E-04
 -1       183-2.82221E-09-2.99296E-03-3.06860E-04
 -1       184 1.23509E-05-2.40496E-03-2.60149E-04
 -1       185 7.49713E-10-2.31407E-03-5.67392E-04
 -1       186 2.03582E-05-1.84690E-03-7.68999E-04
 -1       187-4.56197E-12-1.78153E-03-7.71342E-04
 -1       188-2.03592E-05-1.84690E-03-7.68998E-04
 -1       189-2.06504E-11-7.44234E-04-4.85046E-04
 -1       211-5.54587E-05-3.21911E-03-1.63567E-04
 -1       212 2.27876E-05-2.63861E-03-1.50174E-05
 -1       213 3.87810E-05-3.13757E-03 1.19673E-04
 -1       214 1.54263E-05-2.28167E-03-3.36186E-05
 -1       215-3.30957E-05-1.52765E-03-2.93325E-04
 -1       216-2.85319E-05-1.60686E-03-9.09908E-06
 -1       217-5.65349E-06-1.50693E-03 2.79392E-04
 -1       218-1.38910E-05-6.30054E-04 7.77727E-06
 -1       250 2.81312E-09-2.80791E-03 3.17851E-05
 -1       251-4.35063E-06-2.15229E-03 1.42240E-05
 -1       252 1.71472E-10-2.20238E-03-3.78088E-06
 -1       253 4.35098E-06-2.15229E-03 1.42241E-05
 -1       254-2.32885E-09-2.94711E-03-1.54932E-04
 -1       255 1.19231E-10-2.38121E-03-2.20295E-05
 -1       256-1.67159E-10-1.45415E-03 3.23223E-04
 -1       257-1.63910E-05-1.61593E-03-1.54107E-05
 -1       258 7.70641E-11-1.48318E-03-1.43824E-05
 -1       259 1.63911E-05-1.61593E-03-1.54107E-05
 -1       260 3.17356E-10-1.52759E-03-3.36663E-04
 -1       261 2.10039E-11-6.82692E-04 2.97291E-06
 -3
    1PSTEP                         2           2           1          
  100CL  102 8.00000E-03          81                     1    2           1
 -4  DISP        4    1
 -5  D1          1    2    1    0
 -5  D2          1    2    2    0
 -5  D3          1    2    3    0
 -5  ALL         1    2    0    0    1ALL
 -1         5 0.00000E+00 0.00000E+00 0.00000E+00
 -1         6 0.00000E+00 0.00000E+00 0.00000E+00
 -1         7 0.00000E+00 0.00000E+00 0.00000E+00
 -1         8 0.00000E+00 0.00000E+00 0.00000E+00
 -1        21 0.00000E+00 0.00000E+00 0.00000E+00
 -1        22 0.00000E+00 0.00000E+00 0.00000E+00
 -1        23 0.00000E+00 0.00000E+00 0.00000E+00
 -1        24 0.00000E+00 0.00000E+00 0.00000E+00
 -1        25 0.00000E+00 0.00000E+00 0.00000E+00
 -1        26 0.00000E+00 0.00000E+00 0.00000E+00
 -1        27 0.00000E+00 0.00000E+00 0.00000E+00
 -1        28 0.00000E+00 0.00000E+00 0.00000E+00
 -1        29 0.00000E+00 0.00000E+00 0.00000E+00
 -1        30 0.00000E+00 0.00000E+00 0.00000E+00
 -1        31 0.00000E+00 0.00000E+00 0.00000E+00
 -1        32 0.00000E+00 0.00000E+00 0.00000E+00
 -1        44-6.72854E-05 9.47909E-04-1.37386E-04
 -1        45-4.65648E-06 7.52474E-04-2.23445E-04
 -1        46 2.28637E-05 5.99246E-04-2.53522E-04
 -1        47-3.31047E-05 2.57314E-04-1.75975E-04
 -1        48 3.30984E-05 2.57308E-04-1.75956E-04
 -1        49-2.28123E-05 5.99298E-04-2.53505E-04
 -1        50 4.60868E-06 7.52426E-04-2.23609E-04
 -1        51 6.76445E-05 9.48267E-04-1.37980E-04
 -1        74 5.70172E-05 1.01092E-03 1.29738E-04
 -1        75-1.37101E-05 7.79120E-04 2.10637E-04
 -1        76-1.53285E-05 5.65501E-04 2.43885E-04
 -1        77 3.27924E-05 2.54212E-04 1.72648E-04
 -1        89-5.73769E-05 1.01128E-03 1.30333E-04
 -1        90 1.37580E-05 7.79072E-04 2.10801E-04
 -1        91 1.52769E-05 5.65552E-04 2.43869E-04
 -1        92-3.27861E-05 2.54206E-04 1.72629E-04
 -1        98 0.00000E+00 0.00000E+00 0.00000E+00
 -1        99 0.00000E+00 0.00000E+00 0.00000E+00
 -1       100 0.00000E+00 0.00000E+00 0.00000E+00
 -1       101 0.00000E+00 0.00000E+00 0.00000E+00
 -1       102 0.00000E+00 0.00000E+00 0.00000E+00
 -1       124 3.56987E-05 8.98372E-04-1.16838E-04
 -1       125 4.96831E-08 9.74429E-04-1.29743E-04
 -1       126-3.54990E-05 8.98167E-04-1.16630E-04
 -1       127-7.80904E-09 7.82664E-04-2.03888E-04
 -1       128-1.21569E-05 6.05317E-04-2.65553E-04
 -1       129-2.22811E-09 5.74238E-04-2.63517E-04
 -1       130 1.21819E-05 6.05298E-04-2.65533E-04
 -1       131 1.68030E-09 2.64719E-04-1.79361E-04
 -1       153 1.64354E-05 1.06571E-03-6.04900E-05
 -1       154 1.46455E-05 8.92429E-04-6.30518E-06
 -1       155-1.38136E-05 1.07904E-03 4.90757E-05
 -1       156 1.03423E-05 8.05662E-04-6.02566E-06
 -1       157 1.35267E-06 5.42825E-04-1.11598E-04
 -1       158-1.94749E-06 5.60853E-04-2.49437E-06
 -1       159 1.02169E-05 5.27721E-04 1.04101E-04
 -1       160-2.15380E-07 2.32526E-04 1.51466E-06
 -1       182 4.39749E-05 8.72651E-04 1.07733E-04
 -1       183-4.97011E-08 1.01002E-03 1.22072E-04
 -1       184-4.41748E-05 8.72857E-04 1.07942E-04
 -1       185 7.93268E-09 7.76202E-04 1.90296E-04
 -1       186-1.10885E-05 5.73229E-04 2.57972E-04
 -1       187 2.14272E-09 5.01872E-04 2.54406E-04
 -1       188 1.10634E-05 5.73247E-04 2.57992E-04
 -1       189-1.68238E-09 2.41638E-04 1.73244E-04
 -1       211 1.36086E-05 1.07924E-03 4.92845E-05
 -1       212-1.46450E-05 8.92528E-04-6.30584E-06
 -1       213-1.62299E-05 1.06591E-03-6.06991E-05
 -1       214-1.03423E-05 8.05646E-04-6.02577E-06
 -1       215-1.02352E-05 5.27747E-04 1.04121E-04
 -1       216 1.94763E-06 5.60849E-04-2.49435E-06
 -1       217-1.33436E-06 5.42850E-04-1.11618E-04
 -1       218 2.15384E-07 2.32529E-04 1.51461E-06
 -1       250 4.57748E-08 1.01656E-03-5.51108E-05
 -1       251-4.40357E-06 7.83315E-04-1.01735E-05
 -1       252 1.43822E-10 8.63398E-04-8.09104E-06
 -1       253 4.40393E-06 7.83224E-04-1.01733E-05
 -1       254-4.57298E-08 1.03040E-03 3.97256E-05
 -1       255 2.68313E-11 8.22324E-04-7.46718E-06
 -1       256-7.08458E-09 5.33236E-04-1.20321E-04
 -1       257-1.68667E-06 5.72240E-04-3.49661E-06
 -1       258 2.76625E-11 5.37291E-04-4.42436E-06
 -1       259 1.68677E-06 5.72254E-04-3.49661E-06
 -1       260 7.10308E-09 4.99024E-04 1.12949E-04
 -1       261-1.14116E-11 2.38920E-04 1.64970E-06
 -3
    1PSTEP                         3           3           1          
  100CL  103 1.20000E-02          81                     1    3           1
 -4  DISP        4    1
 -5  D1          1    2    1    0
 -5  D2          1    2    2    0
 -5  D3          1    2    3    0
 -5  ALL         1    2    0    0    1ALL
 -1         5 0.00000E+00 0.00000E+00 0.00000E+00
 -1         6 0.00000E+00 0.00000E+00 0.00000E+00
 -1         7 0.00000E+00 0.00000E+00 0.00000E+00
 -1         8 0.00000E+00 0.00000E+00 0.00000E+00
 -1        21 0.00000E+00 0.00000E+00 0.00000E+00
 -1        22 0.00000E+00 0.00000E+00 0.00000E+00
 -1        23 0.00000E+00 0.00000E+00 0.00000E+00
 -1        24 0.00000E+00 0.00000E+00 0.00000E+00
 -1        25 0.00000E+00 0.00000E+00 0.00000E+00
 -1        26 0.00000E+00 0.00000E+00 0.00000E+00
 -1        27 0.00000E+00 0.00000E+00 0.00000E+00
 -1        28 0.00000E+00 0.00000E+00 0.00000E+00
 -1        29 0.00000E+00 0.00000E+00 0.00000E+00
 -1        30 0.00000E+00 0.00000E+00 0.00000E+00
 -1        31 0.00000E+00 0.00000E+00 0.00000E+00
 -1        32 0.00000E+00 0.00000E+00 0.00000E+00
 -1        44 4.39210E-05-1.02110E-03 1.09090E-04
 -1        45-2.17668E-06-8.27445E-04 2.21892E-04
 -1        46-2.44724E-05-6.36968E-04 2.66787E-04
 -1        47 3.58608E-05-2.73667E-04 1.86922E-04
 -1        48-3.58494E-05-2.73656E-04 1.86887E-04
 -1        49 2.43795E-05-6.37061E-04 2.66757E-04
 -1        50 2.26348E-06-8.27359E-04 2.22186E-04
 -1        51-4.45660E-05-1.02175E-03 1.10156E-04
 -1        74-2.75219E-05-1.09726E-03-1.14547E-04
 -1        75 2.03392E-05-8.64096E-04-2.27440E-04
 -1        76 1.36380E-05-6.15467E-04-2.69625E-04
 -1        77-4.28323E-05-2.62936E-04-1.89646E-04
 -1        89 2.81682E-05-1.09791E-03-1.15615E-04
 -1        90-2.04258E-05-8.64009E-04-2.27735E-04
 -1        91-1.35448E-05-6.15560E-04-2.69595E-04
 -1        92 4.28209E-05-2.62925E-04-1.89611E-04
 -1        98 0.00000E+00 0.00000E+00 0.00000E+00
 -1        99 0.00000E+00 0.00000E+00 0.00000E+00
 -1       100 0.00000E+00 0.00000E+00 0.00000E+00
 -1       101 0.00000E+00 0.00000E+00 0.00000E+00
 -1       102 0.00000E+00 0.00000E+00 0.00000E+00
 -1       124-1.55025E-05-9.59255E-04 9.86900E-05
 -1       125-8.74136E-08-1.05559E-03 1.28938E-04
 -1       126 1.51456E-05-9.58887E-04 9.83171E-05
 -1       127 1.37268E-08-8.37066E-04 2.15090E-04
 -1       128 1.11614E-05-6.49951E-04 2.79428E-04
 -1       129 4.32621E-09-6.21499E-04 2.75424E-04
 -1       130-1.12062E-05-6.49918E-04 2.79392E-04
 -1       131-3.06551E-09-2.80427E-04 1.84224E-04
 -1       153-2.04523E-05-1.16132E-03 4.97735E-05
 -1       154-2.54839E-05-9.79602E-04-1.48968E-05
 -1       155 8.22914E-06-1.17955E-03-6.84470E-05
 -1       156-8.32734E-06-8.69419E-04-9.22801E-06
 -1       157-2.70400E-06-5.84072E-04 1.09159E-04
 -1       158 4.91867E-06-6.13995E-04-2.07373E-06
 -1       159 8.21750E-07-5.78507E-04-1.11620E-04
 -1       160 2.55914E-06-2.48129E-04-4.59242E-07
 -1       182-2.45733E-05-9.20008E-04-1.04638E-04
 -1       183 8.76817E-08-1.11804E-03-1.34330E-04
 -1       184 2.49311E-05-9.20377E-04-1.05011E-04
 -1       185-1.35605E-08-8.59073E-04-2.11880E-04
 -1       186 1.02959E-05-6.60145E-04-2.87197E-04
 -1       187-4.27421E-09-6.09818E-04-2.84673E-04
 -1       188-1.02509E-05-6.60178E-04-2.87233E-04
 -1       189 3.08489E-09-2.73863E-04-1.87934E-04
 -1       211-7.86051E-06-1.17991E-03-6.88204E-05
 -1       212 2.54843E-05-9.79778E-04-1.48968E-05
 -1       213 2.00845E-05-1.16167E-03 5.01465E-05
 -1       214 8.32752E-06-8.69392E-04-9.22810E-06
 -1       215-7.88401E-07-5.78551E-04-1.11655E-04
 -1       216-4.91865E-06-6.13987E-04-2.07382E-06
 -1       217 2.67086E-06-5.84117E-04 1.09195E-04
 -1       218-2.55914E-06-2.48135E-04-4.59253E-07
 -1       250-8.10571E-08-1.08604E-03 3.18274E-05
 -1       251 7.64432E-06-8.39814E-04 2.90276E-06
 -1       252 5.80129E-11-8.88853E-04-3.75995E-08
 -1       253-7.64411E-06-8.39652E-04 2.90267E-06
 -1       254 8.12883E-08-1.11565E-03-5.64501E-05
 -1       255 9.60934E-11-8.95176E-04-3.52618E-06
 -1       256 1.29016E-08-5.70796E-04 1.24487E-04
 -1       257-1.20206E-06-6.20660E-04-4.11175E-06
 -1       258 1.86698E-12-5.79239E-04-2.96374E-06
 -1       259 1.20208E-06-6.20685E-04-4.11168E-06
 -1       260-1.28884E-08-5.65081E-04-1.27222E-04
 -1       261 1.25319E-11-2.61889E-04-1.28364E-06
 -3
    1PSTEP                         4           4           1          
  100CL  104 1.60000E-02          81                     1    4           1
 -4  DISP        4    1
 -5  D1          1    2    1    0
 -5  D2          1    2    2    0
 -5  D3          1    2    3    0
 -5  ALL         1    2    0    0    1ALL
 -1         5 0.00000E+00 0.00000E+00 0.00000E+00
 -1         6 0.00000E+00 0.00000E+00 0.00000E+00
 -1         7 0.00000E+00 0.00000E+00 0.00000E+00
 -1         8 0.00000E+00 0.00000E+00 0.00000E+00
 -1        21 0.00000E+00 0.00000E+00 0.00000E+00
 -1        22 0.00000E+00 0.00000E+00 0.00000E+00
 -1        23 0.00000E+00 0.00000E+00 0.00000E+00
 -1        24 0.00000E+00 0.00000E+00 0.00000E+00
 -1        25 0.00000E+00 0.00000E+00 0.00000E+00
 -1        26 0.00000E+00 0.00000E+00 0.00000E+00
 -1        27 0.00000E+00 0.00000E+00 0.00000E+00
 -1        28 0.00000E+00 0.00000E+00 0.00000E+00
 -1        29 0.00000E+00 0.00000E+00 0.00000E+00
 -1        30 0.00000E+00 0.00000E+00 0.00000E+00
 -1        31 0.00000E+00 0.00000E+00 0.00000E+00
 -1        32 0.00000E+00 0.00000E+00 0.00000E+00
 -1        44-3.74367E-05 9.52481E-04-1.32864E-04
 -1        45-1.29519E-05 7.02035E-04-2.35234E-04
 -1        46 2.29781E-05 5.53373E-04-2.41981E-04
 -1        47-3.01799E-05 2.23169E-04-1.56822E-04
 -1        48 3.01291E-05 2.23118E-04-1.56666E-04
 -1        49-2.25619E-05 5.53788E-04-2.41850E-04
 -1        50 1.25641E-05 7.01651E-04-2.36563E-04
 -1        51 4.03446E-05 9.55382E-04-1.37668E-04
 -1        74 2.22105E-05 1.02925E-03 1.43037E-04
 -1        75-1.61192E-06 7.27815E-04 2.35775E-04
 -1        76-1.32454E-05 5.37105E-04 2.40934E-04
 -1        77 3.46461E-05 2.13951E-04 1.57576E-04
 -1        89-2.51260E-05 1.03217E-03 1.47860E-04
 -1        90 1.99954E-06 7.27426E-04 2.37106E-04
 -1        91 1.28272E-05 5.37524E-04 2.40802E-04
 -1        92-3.45947E-05 2.13900E-04 1.57420E-04
 -1        98 0.00000E+00 0.00000E+00 0.00000E+00
 -1        99 0.00000E+00 0.00000E+00 0.00000E+00
 -1       100 0.00000E+00 0.00000E+00 0.00000E+00
 -1       101 0.00000E+00 0.00000E+00 0.00000E+00
 -1       102 0.00000E+00 0.00000E+00 0.00000E+00
 -1       124 1.81821E-05 8.58862E-04-1.07443E-04
 -1       125 4.02288E-07 9.28430E-04-1.41661E-04
 -1       126-1.65651E-05 8.57206E-04-1.05756E-04
 -1       127-6.38157E-08 7.45148E-04-2.12543E-04
 -1       128-1.11443E-05 5.58942E-04-2.61409E-04
 -1       129-1.80344E-08 5.18696E-04-2.59270E-04
 -1       130 1.13463E-05 5.58795E-04-2.61248E-04
 -1       131 1.36496E-08 2.27796E-04-1.62071E-04
 -1       153 3.56418E-05 1.08821E-03-3.87748E-05
 -1       154 1.31760E-05 8.78918E-04 1.40393E-06
 -1       155-3.72097E-05 1.10685E-03 4.11575E-05
 -1       156 8.79865E-06 7.71051E-04 4.33290E-06
 -1       157-2.02281E-06 4.82307E-04-1.06350E-04
 -1       158-5.68089E-06 5.01462E-04 1.12533E-06
 -1       159 3.05902E-06 4.79074E-04 1.07392E-04
 -1       160-2.58465E-06 2.01337E-04-4.27622E-07
 -1       182 2.39889E-05 8.37918E-04 1.17708E-04
 -1       183-4.03385E-07 9.92281E-04 1.51290E-04
 -1       184-2.56098E-05 8.39584E-04 1.19404E-04
 -1       185 6.40912E-08 7.60202E-04 2.09305E-04
 -1       186-1.02710E-05 5.67997E-04 2.62872E-04
 -1       187 1.72534E-08 5.08871E-04 2.61292E-04
 -1       188 1.00671E-05 5.68146E-04 2.63033E-04
 -1       189-1.35700E-08 2.22539E-04 1.62869E-04
 -1       211 3.55476E-05 1.10847E-03 4.28499E-05
 -1       212-1.31721E-05 8.79724E-04 1.39912E-06
 -1       213-3.39784E-05 1.08982E-03-4.04685E-05
 -1       214-8.79951E-06 7.70923E-04 4.33263E-06
 -1       215-3.20745E-06 4.79278E-04 1.07553E-04
 -1       216 5.68162E-06 5.01428E-04 1.12558E-06
 -1       217 2.17081E-06 4.82509E-04-1.06510E-04
 -1       218 2.58444E-06 2.01365E-04-4.27986E-07
 -1       250 3.70385E-07 9.88595E-04-7.48720E-05
 -1       251-3.03698E-06 7.23928E-04-4.97213E-06
 -1       252 2.44567E-10 8.03676E-04-1.54392E-06
 -1       253 3.03860E-06 7.23186E-04-4.97060E-06
 -1       254-3.71335E-07 1.01766E-03 8.50503E-05
 -1       255-6.96277E-11 7.84478E-04 1.10019E-06
 -1       256-5.75320E-08 4.68851E-04-1.10927E-04
 -1       257 1.93094E-06 5.22174E-04 1.34737E-06
 -1       258 4.21111E-11 4.82793E-04 7.31076E-07
 -1       259-1.93042E-06 5.22288E-04 1.34747E-06
 -1       260 5.73862E-08 4.64337E-04 1.11474E-04
 -1       261-1.12397E-10 2.10017E-04 3.51157E-07
 -3
    1PSTEP                         5           5           1          
  100CL  105 2.00000E-02          81                     1    5           1
 -4  DISP        4    1
 -5  D1          1    2    1    0
 -5  D2          1    2    2    0
 -5  D3          1    2    3    0
 -5  ALL         1    2    0    0    1ALL
 -1         5 0.00000E+00 0.00000E+00 0.00000E+00
 -1         6 0.00000E+00 0.00000E+00 0.00000E+00
 -1         7 0.00000E+00 0.00000E+00 0.00000E+00
 -1         8 0.00000E+00 0.00000E+00 0.00000E+00
 -1        21 0.00000E+00 0.00000E+00 0.00000E+00
 -1        22 0.00000E+00 0.00000E+00 0.00000E+00
 -1        23 0.00000E+00 0.00000E+00 0.00000E+00
 -1        24 0.00000E+00 0.00000E+00 0.00000E+00
 -1        25 0.00000E+00 0.00000E+00 0.00000E+00
 -1        26 0.00000E+00 0.00000E+00 0.00000E+00
 -1        27 0.00000E+00 0.00000E+00 0.00000E+00
 -1        28 0.00000E+00 0.00000E+00 0.00000E+00
 -1        29 0.00000E+00 0.00000E+00 0.00000E+00
 -1        30 0.00000E+00 0.00000E+00 0.00000E+00
 -1        31 0.00000E+00 0.00000E+00 0.00000E+00
 -1        32 0.00000E+00 0.00000E+00 0.00000E+00
 -1        44 2.12969E-05-7.29561E-04 1.02422E-04
 -1        45 6.76293E-06-5.55407E-04 1.79849E-04
 -1        46-1.42055E-05-4.15352E-04 1.91521E-04
 -1        47 2.49909E-05-1.70711E-04 1.24965E-04
 -1        48-2.50283E-05-1.70749E-04 1.25080E-04
 -1        49 1.45114E-05-4.15050E-04 1.91619E-04
 -1        50-7.05590E-06-5.55682E-04 1.78853E-04
 -1        51-1.91258E-05-7.27410E-04 9.88383E-05
 -1        74-1.98091E-05-7.82302E-04-1.06901E-04
 -1        75 7.12315E-06-5.78051E-04-1.79031E-04
 -1        76 6.17877E-06-4.02131E-04-1.89088E-04
 -1        77-2.84680E-05-1.62735E-04-1.24867E-04
 -1        89 1.75880E-05-7.80097E-04-1.03240E-04
 -1        90-6.83654E-06-5.78343E-04-1.78019E-04
 -1        91-6.49595E-06-4.01815E-04-1.89185E-04
 -1        92 2.85069E-05-1.62772E-04-1.24981E-04
 -1        98 0.00000E+00 0.00000E+00 0.00000E+00
 -1        99 0.00000E+00 0.00000E+00 0.00000E+00
 -1       100 0.00000E+00 0.00000E+00 0.00000E+00
 -1       101 0.00000E+00 0.00000E+00 0.00000E+00
 -1       102 0.00000E+00 0.00000E+00 0.00000E+00
 -1       124-2.07557E-06-6.60188E-04 9.08572E-05
 -1       125 3.06786E-07-7.30932E-04 1.06299E-04
 -1       126 3.28889E-06-6.61417E-04 9.21203E-05
 -1       127-5.22439E-08-5.73648E-04 1.69418E-04
 -1       128 5.77298E-06-4.27150E-04 2.02109E-04
 -1       129-1.36985E-08-4.01914E-04 2.03002E-04
 -1       130-5.62489E-06-4.27256E-04 2.02229E-04
 -1       131 9.96381E-09-1.74633E-04 1.25559E-04
 -1       153-1.67335E-05-8.40178E-04 4.51316E-05
 -1       154-1.24889E-05-6.95385E-04 1.83287E-06
 -1       155 1.51169E-05-8.48448E-04-4.62232E-05
 -1       156-9.04706E-06-5.87781E-04-3.68710E-06
 -1       157 6.31857E-07-3.70723E-04 8.16173E-05
 -1       158 5.97833E-06-3.92893E-04-1.07020E-06
 -1       159-1.47560E-06-3.68701E-04-8.08518E-05
 -1       160 2.51828E-06-1.52705E-04 4.64898E-07
 -1       182-1.75409E-05-6.36161E-04-9.34896E-05
 -1       183-3.16587E-07-7.74235E-04-1.14156E-04
 -1       184 1.62975E-05-6.34899E-04-9.21953E-05
 -1       185 4.78915E-08-5.86665E-04-1.63085E-04
 -1       186 5.35663E-06-4.33913E-04-2.03529E-04
 -1       187 1.08261E-08-3.92601E-04-2.02784E-04
 -1       188-5.51383E-06-4.33801E-04-2.03406E-04
 -1       189-9.88763E-09-1.70481E-04-1.25508E-04
 -1       211-1.63848E-05-8.47215E-04-4.49299E-05
 -1       212 1.24905E-05-6.94757E-04 1.82304E-06
 -1       213 1.79802E-05-8.38967E-04 4.38471E-05
 -1       214 9.04096E-06-5.87885E-04-3.68437E-06
 -1       215 1.36275E-06-3.68543E-04-8.07288E-05
 -1       216-5.97849E-06-3.92911E-04-1.06764E-06
 -1       217-5.25237E-07-3.70573E-04 8.15023E-05
 -1       218-2.51949E-06-1.52685E-04 4.64200E-07
 -1       250 2.79061E-07-7.70868E-04 5.23926E-05
 -1       251 4.01436E-06-5.79551E-04 4.42893E-06
 -1       252-2.70877E-09-6.22628E-04 1.50232E-06
 -1       253-4.01815E-06-5.80122E-04 4.43297E-06
 -1       254-2.88648E-07-7.87691E-04-6.14096E-05
 -1       255-2.81314E-09-6.03342E-04-4.83498E-07
 -1       256-4.33977E-08-3.62622E-04 8.85337E-05
 -1       257-2.42617E-06-4.03468E-04-5.36169E-07
 -1       258-2.42523E-10-3.72796E-04-1.40647E-07
 -1       259 2.42631E-06-4.03385E-04-5.37122E-07
 -1       260 4.22874E-08-3.59038E-04-8.74576E-05
 -1       261-5.49905E-10-1.62254E-04-3.55978E-07
 -3
    1PSTEP                         6           6           1          
  100CL  106 2.40000E-02          81                     1    6           1
 -4  DISP        4    1
 -5  D1          1    2    1    0
 -5  D2          1    2    2    0
 -5  D3          1    2    3    0
 -5  ALL         1    2    0    0    1ALL
 -1         5 0.00000E+00 0.00000E+00 0.00000E+00
 -1         6 0.00000E+00 0.00000E+00 0.00000E+00
 -1         7 0.00000E+00 0.00000E+00 0.00000E+00
 -1         8 0.00000E+00 0.00000E+00 0.00000E+00
 -1        21 0.00000E+00 0.00000E+00 0.00000E+00
 -1        22 0.00000E+00 0.00000E+00 0.00000E+00
 -1        23 0.00000E+00 0.00000E+00 0.00000E+00
 -1        24 0.00000E+00 0.00000E+00 0.00000E+00
 -1        25 0.00000E+00 0.00000E+00 0.00000E+00
 -1        26 0.00000E+00 0.00000E+00 0.00000E+00
 -1        27 0.00000E+00 0.00000E+00 0.00000E+00
 -1        28 0.00000E+00 0.00000E+00 0.00000E+00
 -1        29 0.00000E+00 0.00000E+00 0.00000E+00
 -1        30 0.00000E+00 0.00000E+00 0.00000E+00
 -1        31 0.00000E+00 0.00000E+00 0.00000E+00
 -1        32 0.00000E+00 0.00000E+00 0.00000E+00
 -1        44-3.06399E-05 4.64621E-04-5.83932E-05
 -1        45-2.15062E-06 3.57387E-04-1.06748E-04
 -1        46 1.03725E-05 2.85629E-04-1.23811E-04
 -1        47-1.44053E-05 1.17994E-04-8.16141E-05