    1C
    1UUSER                                                              
    1UDATE              12.july.2018                                    
    1UTIME              16:54:26                                        
    1UHOST                                                              
    1UPGM               CalculiX                                        
    1UVERSION           Version 2.13                             
    1UCOMPILETIME       jue jun 14 00:40:39 CEST 2018                    
    1UDIR                                                               
    1UDBN                                                               
    1UMAT    1EL                                                        
    2C                            81                                     1
 -1         5 0.00000E+00 0.00000E+00 8.00000E+00
 -1         6 1.00000E+00 0.00000E+00 8.00000E+00
 -1         7 1.00000E+00 1.00000E+00 8.00000E+00
 -1         8 0.00000E+00 1.00000E+00 8.00000E+00
 -1        21 2.50000E-01 0.00000E+00 8.00000E+00
 -1        22 5.00000E-01 0.00000E+00 8.00000E+00
 -1        23 7.50000E-01 0.00000E+00 8.00000E+00
 -1        24 1.00000E+00 2.50000E-01 8.00000E+00
 -1        25 1.00000E+00 5.00000E-01 8.00000E+00
 -1        26 1.00000E+00 7.50000E-01 8.00000E+00
 -1        27 7.50000E-01 1.00000E+00 8.00000E+00
 -1        28 5.00000E-01 1.00000E+00 8.00000E+00
 -1        29 2.50000E-01 1.00000E+00 8.00000E+00
 -1        30 0.00000E+00 7.50000E-01 8.00000E+00
 -1        31 0.00000E+00 5.00000E-01 8.00000E+00
 -1        32 0.00000E+00 2.50000E-01 8.00000E+00
 -1        44 1.00000E+00 0.00000E+00 6.00000E+00
 -1        45 1.00000E+00 0.00000E+00 6.50000E+00
 -1        46 1.00000E+00 0.00000E+00 7.00000E+00
 -1        47 1.00000E+00 0.00000E+00 7.50000E+00
 -1        48 0.00000E+00 0.00000E+00 7.50000E+00
 -1        49 0.00000E+00 0.00000E+00 7.00000E+00
 -1        50 0.00000E+00 0.00000E+00 6.50000E+00
 -1        51 0.00000E+00 0.00000E+00 6.00000E+00
 -1        74 1.00000E+00 1.00000E+00 6.00000E+00
 -1        75 1.00000E+00 1.00000E+00 6.50000E+00
 -1        76 1.00000E+00 1.00000E+00 7.00000E+00
 -1        77 1.00000E+00 1.00000E+00 7.50000E+00
 -1        89 0.00000E+00 1.00000E+00 6.00000E+00
 -1        90 0.00000E+00 1.00000E+00 6.50000E+00
 -1        91 0.00000E+00 1.00000E+00 7.00000E+00
 -1        92 0.00000E+00 1.00000E+00 7.50000E+00
 -1        98 5.00000E-01 2.50000E-01 8.00000E+00
 -1        99 2.50000E-01 5.00000E-01 8.00000E+00
 -1       100 5.00000E-01 5.00000E-01 8.00000E+00
 -1       101 7.50000E-01 5.00000E-01 8.00000E+00
 -1       102 5.00000E-01 7.50000E-01 8.00000E+00
 -1       124 2.50000E-01 0.00000E+00 6.00000E+00
 -1       125 5.00000E-01 0.00000E+00 6.00000E+00
 -1       126 7.50000E-01 0.00000E+00 6.00000E+00
 -1       127 5.00000E-01 0.00000E+00 6.50000E+00
 -1       128 2.50000E-01 0.00000E+00 7.00000E+00
 -1       129 5.00000E-01 0.00000E+00 7.00000E+00
 -1       130 7.50000E-01 0.00000E+00 7.00000E+00
 -1       131 5.00000E-01 0.00000E+00 7.50000E+00
 -1       153 1.00000E+00 2.50000E-01 6.00000E+00
 -1       154 1.00000E+00 5.00000E-01 6.00000E+00
 -1       155 1.00000E+00 7.50000E-01 6.00000E+00
 -1       156 1.00000E+00 5.00000E-01 6.50000E+00
 -1       157 1.00000E+00 2.50000E-01 7.00000E+00
 -1       158 1.00000E+00 5.00000E-01 7.00000E+00
 -1       159 1.00000E+00 7.50000E-01 7.00000E+00
 -1       160 1.00000E+00 5.00000E-01 7.50000E+00
 -1       182 7.50000E-01 1.00000E+00 6.00000E+00
 -1       183 5.00000E-01 1.00000E+00 6.00000E+00
 -1       184 2.50000E-01 1.00000E+00 6.00000E+00
 -1       185 5.00000E-01 1.00000E+00 6.50000E+00
 -1       186 7.50000E-01 1.00000E+00 7.00000E+00
 -1       187 5.00000E-01 1.00000E+00 7.00000E+00
 -1       188 2.50000E-01 1.00000E+00 7.00000E+00
 -1       189 5.00000E-01 1.00000E+00 7.50000E+00
 -1       211 0.00000E+00 7.50000E-01 6.00000E+00
 -1       212 0.00000E+00 5.00000E-01 6.00000E+00
 -1       213 0.00000E+00 2.50000E-01 6.00000E+00
 -1       214 0.00000E+00 5.00000E-01 6.50000E+00
 -1       215 0.00000E+00 7.50000E-01 7.00000E+00
 -1       216 0.00000E+00 5.00000E-01 7.00000E+00
 -1       217 0.00000E+00 2.50000E-01 7.00000E+00
 -1       218 0.00000E+00 5.00000E-01 7.50000E+00
 -1       250 5.00000E-01 2.50000E-01 6.00000E+00
 -1       251 2.50000E-01 5.00000E-01 6.00000E+00
 -1       252 5.00000E-01 5.00000E-01 6.00000E+00
 -1       253 7.50000E-01 5.00000E-01 6.00000E+00
 -1       254 5.00000E-01 7.50000E-01 6.00000E+00
 -1       255 5.00000E-01 5.00000E-01 6.50000E+00
 -1       256 5.00000E-01 2.50000E-01 7.00000E+00
 -1       257 2.50000E-01 5.00000E-01 7.00000E+00
 -1       258 5.00000E-01 5.00000E-01 7.00000E+00
 -1       259 7.50000E-01 5.00000E-01 7.00000E+00
 -1       260 5.00000E-01 7.50000E-01 7.00000E+00
 -1       261 5.00000E-01 5.00000E-01 7.50000E+00
 -3
    3C                             8                                     1
 -1        25    4    0    1
 -2        51       125       252       212        49       129       258       216       124       250
 -2       251       213        50       127       255       214       128       256       257       217
 -1        26    4    0    1
 -2       125        44       154       252       129        46       158       258       126       153
 -2       253       250       127        45       156       255       130       157       259       256
 -1        27    4    0    1
 -2       212       252       183        89       216       258       187        91       251       254
 -2       184       211       214       255       185        90       257       260       188       215
 -1        28    4    0    1
 -2       252       154        74       183       258       158        76       187       253       155
 -2       182       254       255       156        75       185       259       159       186       260
 -1        29    4    0    1
 -2        49       129       258       216         5        22       100        31       128       256
 -2       257       217        48       131       261       218        21        98        99        32
 -1        30    4    0    1
 -2       129        46       158       258        22         6        25       100       130       157
 -2       259       256       131        47       160       261        23        24       101        98
 -1        31    4    0    1
 -2       216       258       187        91        31       100        28         8       257       260
 -2       188       215       218       261       189        92        99       102        29        30
 -1        32    4    0    1
 -2       258       158        76       187       100        25         7        28       259       159
 -2       186       260       261       160        77       189       101        26        27       102
 -3
    1PSTEP                         1           1           1          
  100CL  101 4.00000E-03          81                     1    1           1
 -4  DISP        4    1
 -5  D1          1    2    1    0
 -5  D2          1    2    2    0
 -5  D3          1    2    3    0
 -5  ALL         1    2    0    0    1ALL
 -1         5 0.00000E+00 0.00000E+00 0.00000E+00
 -1         6 0.00000E+00 0.00000E+00 0.00000E+00
 -1         7 0.00000E+00 0.00000E+00 0.00000E+00
 -1         8 0.00000E+00 0.00000E+00 0.00000E+00
 -1        21 0.00000E+00 0.00000E+00 0.00000E+00
 -1        22 0.00000E+00 0.00000E+00 0.00000E+00
 -1        23 0.00000E+00 0.00000E+00 0.00000E+00
 -1        24 0.00000E+00 0.00000E+00 0.00000E+00
 -1        25 0.00000E+00 0.00000E+00 0.00000E+00
 -1        26 0.00000E+00 0.00000E+00 0.00000E+00
 -1        27 0.00000E+00 0.00000E+00 0.00000E+00
 -1        28 0.00000E+00 0.00000E+00 0.00000E+00
 -1        29 0.00000E+00 0.00000E+00 0.00000E+00
 -1        30 0.00000E+00 0.00000E+00 0.00000E+00
 -1        31 0.00000E+00 0.00000E+00 0.00000E+00
 -1        32 0.00000E+00 0.00000E+00 0.00000E+00
 -1        44-1.13699E-04-3.75481E-03 4.79544E-04
 -1        45 5.85130E-05-2.75776E-03 8.47993E-04
 -1        46-4.46588E-05-1.92797E-03 1.03084E-03
 -1        47 1.43559E-04-7.18625E-04 5.80538E-04
 -1        48-1.43557E-04-7.18623E-04 5.80536E-04
 -1        49 4.46532E-05-1.92798E-03 1.03085E-03
 -1        50-5.85032E-05-2.75776E-03 8.47983E-04
 -1        51 1.13702E-04-3.75482E-03 4.79536E-04
 -1        74 4.49621E-04-4.87974E-03-5.34099E-04
 -1        75 2.47622E-04-3.24985E-03-8.48501E-04
 -1        76-1.45948E-04-1.69355E-03-1.03245E-03
 -1        77-2.38338E-04-5.41865E-04-5.98108E-04
 -1        89-4.49614E-04-4.87974E-03-5.34087E-04
 -1        90-2.47618E-04-3.24984E-03-8.48489E-04
 -1        91 1.45950E-04-1.69355E-03-1.03246E-03
 -1        92 2.38337E-04-5.41864E-04-5.98110E-04
 -1        98 0.00000E+00 0.00000E+00 0.00000E+00
 -1        99 0.00000E+00 0.00000E+00 0.00000E+00
 -1       100 0.00000E+00 0.00000E+00 0.00000E+00
 -1       101 0.00000E+00 0.00000E+00 0.00000E+00
 -1       102 0.00000E+00 0.00000E+00 0.00000E+00
 -1       124 1.64981E-04-3.18910E-03 4.59635E-04
 -1       125 2.12593E-08-3.85528E-03 4.79993E-04
 -1       126-1.64960E-04-3.18911E-03 4.59632E-04
 -1       127-1.10625E-09-2.74755E-03 9.77623E-04
 -1       128-8.83297E-06-2.10414E-03 1.02114E-03
 -1       129 4.93900E-09-1.95672E-03 1.01051E-03
 -1       130 8.83540E-06-2.10414E-03 1.02114E-03
 -1       131-5.97315E-10-7.90997E-04 5.98865E-04
 -1       153 1.19275E-04-3.86781E-03 2.03115E-04
 -1       154-1.30128E-04-2.57427E-03-2.44611E-05
 -1       155-1.27288E-04-4.19474E-03-2.58462E-04
 -1       156-1.38140E-04-2.99505E-03-7.71511E-05
 -1       157-3.24781E-05-1.61576E-03 4.24485E-04
 -1       158 1.00331E-04-1.67697E-03-3.49284E-05
 -1       159 6.64630E-05-1.57036E-03-4.46354E-04
 -1       160 4.59904E-05-7.11700E-04 5.69050E-06
 -1       182 1.61937E-04-2.71334E-03-5.08500E-04
 -1       183-7.86780E-09-4.74956E-03-5.13489E-04
 -1       184-1.61941E-04-2.71333E-03-5.08510E-04
 -1       185 1.93745E-09-3.05871E-03-9.40325E-04
 -1       186-5.72548E-05-2.35110E-03-1.06204E-03
 -1       187-1.13135E-09-1.97990E-03-1.03537E-03
 -1       188 5.72553E-05-2.35110E-03-1.06204E-03
 -1       189 2.44779E-10-7.74206E-04-6.08660E-04
 -1       211 1.27287E-04-4.19472E-03-2.58471E-04
 -1       212 1.30136E-04-2.57424E-03-2.44576E-05
 -1       213-1.19269E-04-3.86780E-03 2.03117E-04
 -1       214 1.38142E-04-2.99506E-03-7.71526E-05
 -1       215-6.64588E-05-1.57036E-03-4.46356E-04
 -1       216-1.00329E-04-1.67696E-03-3.49301E-05
 -1       217 3.24764E-05-1.61576E-03 4.24485E-04
 -1       218-4.59903E-05-7.11701E-04 5.69023E-06
 -1       250 1.14541E-08-4.42939E-03 1.83961E-04
 -1       251 4.57195E-05-2.77944E-03-1.22798E-05
 -1       252-2.60371E-09-3.37007E-03-1.87920E-05
 -1       253-4.57185E-05-2.77946E-03-1.22848E-05
 -1       254-6.21984E-09-4.78788E-03-2.78295E-04
 -1       255 1.80742E-09-2.77752E-03-3.74912E-05
 -1       256 1.98930E-09-1.73103E-03 4.22315E-04
 -1       257-5.00557E-05-1.87072E-03-1.41391E-05
 -1       258-3.13649E-10-1.94335E-03-1.71911E-05
 -1       259 5.00565E-05-1.87072E-03-1.41374E-05
 -1       260-6.22007E-10-1.75635E-03-4.49185E-04
 -1       261 5.15335E-10-7.72315E-04-2.16356E-06
 -3
    1PSTEP                         2           2           1          
  100CL  102 8.00000E-03          81                     1    2           1
 -4  DISP        4    1
 -5  D1          1    2    1    0
 -5  D2          1    2    2    0
 -5  D3          1    2    3    0
 -5  ALL         1    2    0    0    1ALL
 -1         5 0.00000E+00 0.00000E+00 0.00000E+00
 -1         6 0.00000E+00 0.00000E+00 0.00000E+00
 -1         7 0.00000E+00 0.00000E+00 0.00000E+00
 -1         8 0.00000E+00 0.00000E+00 0.00000E+00
 -1        21 0.00000E+00 0.00000E+00 0.00000E+00
 -1        22 0.00000E+00 0.00000E+00 0.00000E+00
 -1        23 0.00000E+00 0.00000E+00 0.00000E+00
 -1        24 0.00000E+00 0.00000E+00 0.00000E+00
 -1        25 0.00000E+00 0.00000E+00 0.00000E+00
 -1        26 0.00000E+00 0.00000E+00 0.00000E+00
 -1        27 0.00000E+00 0.00000E+00 0.00000E+00
 -1        28 0.00000E+00 0.00000E+00 0.00000E+00
 -1        29 0.00000E+00 0.00000E+00 0.00000E+00
 -1        30 0.00000E+00 0.00000E+00 0.00000E+00
 -1        31 0.00000E+00 0.00000E+00 0.00000E+00
 -1        32 0.00000E+00 0.00000E+00 0.00000E+00
 -1        44-2.38862E-04 1.03286E-03-1.70334E-04
 -1        45-2.90537E-05 8.50133E-04-2.51813E-04
 -1        46 4.23142E-05 6.48183E-04-2.70275E-04
 -1        47-2.94323E-05 2.81144E-04-2.07293E-04
 -1        48 2.94326E-05 2.81144E-04-2.07294E-04
 -1        49-4.23147E-05 6.48183E-04-2.70276E-04
 -1        50 2.90581E-05 8.50132E-04-2.51814E-04
 -1        51 2.38866E-04 1.03286E-03-1.70334E-04
 -1        74 3.42139E-04 6.90963E-04 1.53851E-04
 -1        75 1.22590E-04 7.00361E-04 2.51675E-04
 -1        76-1.00280E-04 7.19419E-04 2.69796E-04
 -1        77 5.11419E-07 3.34859E-04 2.01983E-04
 -1        89-3.42136E-04 6.90967E-04 1.53850E-04
 -1        90-1.22586E-04 7.00362E-04 2.51674E-04
 -1        91 1.00280E-04 7.19419E-04 2.69795E-04
 -1        92-5.11184E-07 3.34859E-04 2.01982E-04
 -1        98 0.00000E+00 0.00000E+00 0.00000E+00
 -1        99 0.00000E+00 0.00000E+00 0.00000E+00
 -1       100 0.00000E+00 0.00000E+00 0.00000E+00
 -1       101 0.00000E+00 0.00000E+00 0.00000E+00
 -1       102 0.00000E+00 0.00000E+00 0.00000E+00
 -1       124 5.61221E-05 1.02890E-03-1.58144E-04
 -1       125 4.41923E-09 1.21750E-03-1.66668E-04
 -1       126-5.61173E-05 1.02890E-03-1.58143E-04
 -1       127 8.17490E-10 9.23186E-04-2.66141E-04
 -1       128-7.15186E-06 6.56102E-04-3.15697E-04
 -1       129 1.06059E-09 6.06582E-04-3.30811E-04
 -1       130 7.15298E-06 6.56103E-04-3.15697E-04
 -1       131-9.40673E-11 2.66808E-04-1.90847E-04
 -1       153 2.05611E-04 1.41554E-03-7.86428E-05
 -1       154-3.90501E-05 1.50921E-03-7.37622E-06
 -1       155-2.08605E-04 1.31463E-03 6.19228E-05
 -1       156-4.18034E-05 9.89954E-04-2.34207E-05
 -1       157-4.37967E-05 5.80071E-04-1.22208E-04
 -1       158 3.02630E-05 5.84428E-04-1.05968E-05
 -1       159 5.41891E-05 5.94241E-04 1.15616E-04
 -1       160 1.39183E-05 1.99827E-04 1.71948E-06
 -1       182 5.72401E-05 1.17337E-03 1.43376E-04
 -1       183 3.86138E-09 9.46436E-04 1.56531E-04
 -1       184-5.72357E-05 1.17337E-03 1.43374E-04
 -1       185 6.65058E-10 8.29140E-04 2.77626E-04
 -1       186-2.22240E-05 5.81322E-04 3.03324E-04
 -1       187 1.02858E-09 5.99778E-04 3.23374E-04
 -1       188 2.22252E-05 5.81322E-04 3.03324E-04
 -1       189-8.48347E-11 2.71881E-04 1.87891E-04
 -1       211 2.08609E-04 1.31464E-03 6.19211E-05
 -1       212 3.90542E-05 1.50921E-03-7.37807E-06
 -1       213-2.05608E-04 1.41554E-03-7.86442E-05
 -1       214 4.18037E-05 9.89954E-04-2.34225E-05
 -1       215-5.41880E-05 5.94241E-04 1.15615E-04
 -1       216-3.02604E-05 5.84428E-04-1.05978E-05
 -1       217 4.37978E-05 5.80071E-04-1.22209E-04
 -1       218-1.39178E-05 1.99827E-04 1.71935E-06
 -1       250 1.89487E-09 1.23211E-03-8.34610E-05
 -1       251 1.45468E-05 7.88370E-04-3.68943E-06
 -1       252-1.02742E-09 1.05937E-03-5.67293E-06
 -1       253-1.45446E-05 7.88370E-04-3.68981E-06
 -1       254 1.82508E-09 1.12513E-03 5.49216E-05
 -1       255 1.31630E-09 1.01406E-03-1.13303E-05
 -1       256 4.91177E-10 5.31977E-04-1.51692E-04
 -1       257-1.52881E-05 6.66410E-04-4.26907E-06
 -1       258-3.10836E-11 5.06023E-04-5.19490E-06
 -1       259 1.52890E-05 6.66410E-04-4.26828E-06
 -1       260 4.22083E-10 5.24039E-04 1.43567E-04
 -1       261 3.43702E-10 2.35887E-04-6.55049E-07
 -3
    1PSTEP                         3           3           1          
  100CL  103 1.20000E-02          81                     1    3           1
 -4  DISP        4    1
 -5  D1          1    2    1    0
 -5  D2          1    2    2    0
 -5  D3          1    2    3    0
 -5  ALL         1    2    0    0    1ALL
 -1         5 0.00000E+00 0.00000E+00 0.00000E+00
 -1         6 0.00000E+00 0.00000E+00 0.00000E+00
 -1         7 0.00000E+00 0.00000E+00 0.00000E+00
 -1         8 0.00000E+00 0.00000E+00 0.00000E+00
 -1        21 0.00000E+00 0.00000E+00 0.00000E+00
 -1        22 0.00000E+00 0.00000E+00 0.00000E+00
 -1        23 0.00000E+00 0.00000E+00 0.00000E+00
 -1        24 0.00000E+00 0.00000E+00 0.00000E+00
 -1        25 0.00000E+00 0.00000E+00 0.00000E+00
 -1        26 0.00000E+00 0.00000E+00 0.00000E+00
 -1        27 0.00000E+00 0.00000E+00 0.00000E+00
 -1        28 0.00000E+00 0.00000E+00 0.00000E+00
 -1        29 0.00000E+00 0.00000E+00 0.00000E+00
 -1        30 0.00000E+00 0.00000E+00 0.00000E+00
 -1        31 0.00000E+00 0.00000E+00 0.00000E+00
 -1        32 0.00000E+00 0.00000E+00 0.00000E+00
 -1        44 1.21069E-04-1.27387E-03 1.85396E-04
 -1        45 2.79228E-05-9.89624E-04 2.98777E-04
 -1        46-3.30121E-05-7.24022E-04 3.42155E-04
 -1        47 4.27029E-05-2.93170E-04 2.25086E-04
 -1        48-4.27025E-05-2.93169E-04 2.25085E-04
 -1        49 3.30140E-05-7.24022E-04 3.42153E-04
 -1        50-2.79156E-05-9.89626E-04 2.98776E-04
 -1        51-1.21053E-04-1.27388E-03 1.85392E-04
 -1        74-1.21094E-04-1.27404E-03-1.85404E-04
 -1        75-2.79080E-05-9.89679E-04-2.98773E-04
 -1        76 3.30016E-05-7.23998E-04-3.42153E-04
 -1        77-4.27060E-05-2.93145E-04-2.25089E-04
 -1        89 1.21100E-04-1.27404E-03-1.85407E-04
 -1        90 2.79169E-05-9.89678E-04-2.98774E-04
 -1        91-3.30029E-05-7.24000E-04-3.42157E-04
 -1        92 4.27062E-05-2.93146E-04-2.25091E-04
 -1        98 0.00000E+00 0.00000E+00 0.00000E+00
 -1        99 0.00000E+00 0.00000E+00 0.00000E+00
 -1       100 0.00000E+00 0.00000E+00 0.00000E+00
 -1       101 0.00000E+00 0.00000E+00 0.00000E+00
 -1       102 0.00000E+00 0.00000E+00 0.00000E+00
 -1       124-4.20962E-06-1.17211E-03 1.74687E-04
 -1       125 6.84219E-09-1.40098E-03 1.83307E-04
 -1       126 4.22298E-06-1.17210E-03 1.74689E-04
 -1       127 3.29588E-09-1.03126E-03 3.30372E-04
 -1       128 2.75861E-06-7.59735E-04 3.67135E-04
 -1       129 1.22443E-09-7.04497E-04 3.74172E-04
 -1       130-2.75607E-06-7.59735E-04 3.67136E-04
 -1       131 8.96752E-11-2.97463E-04 2.18660E-04
 -1       153-9.99897E-05-1.51924E-03 8.23516E-05
 -1       154-4.80785E-08-1.34497E-03-3.23936E-09
 -1       155 1.00042E-04-1.51927E-03-8.23583E-05
 -1       156-3.03655E-08-1.11444E-03-9.65608E-09
 -1       157 2.00419E-05-6.28421E-04 1.47311E-04
 -1       158 2.80049E-08-6.41746E-04-4.59343E-09
 -1       159-2.00411E-05-6.28425E-04-1.47314E-04
 -1       160 1.12600E-08-2.44003E-04 1.95368E-09
 -1       182-4.26619E-06-1.17203E-03-1.74699E-04
 -1       183 8.27242E-09-1.40115E-03-1.83312E-04
 -1       184 4.27604E-06-1.17203E-03-1.74709E-04
 -1       185 6.33156E-10-1.03134E-03-3.30375E-04
 -1       186 2.76218E-06-7.59785E-04-3.67143E-04
 -1       187 2.17876E-09-7.04501E-04-3.74183E-04
 -1       188-2.76025E-06-7.59785E-04-3.67143E-04
 -1       189-2.80124E-10-2.97457E-04-2.18663E-04
 -1       211-1.00033E-04-1.51927E-03-8.23654E-05
 -1       212 6.41329E-08-1.34497E-03-9.45813E-09
 -1       213 1.00004E-04-1.51925E-03 8.23449E-05
 -1       214 3.29353E-08-1.11444E-03-1.49192E-08
 -1       215 2.00429E-05-6.28426E-04-1.47316E-04
 -1       216-2.42319E-08-6.41746E-04-6.06279E-09
 -1       217-2.00388E-05-6.28420E-04 1.47309E-04
 -1       218-1.07941E-08-2.44003E-04 1.98524E-09
 -1       250 4.21546E-09-1.51209E-03 8.17572E-05
 -1       251 9.33140E-09-9.57635E-04 3.28775E-10
 -1       252 5.31668E-10-1.22183E-03-6.84336E-09
 -1       253-1.67652E-09-9.57635E-04-4.57257E-09
 -1       254 5.33198E-09-1.51219E-03-8.17768E-05
 -1       255 3.23149E-09-1.08993E-03-9.86095E-09
 -1       256 4.73803E-10-6.20418E-04 1.64268E-04
 -1       257-8.22197E-09-7.24365E-04-5.10510E-09
 -1       258-8.85785E-11-6.42993E-04-3.46620E-09
 -1       259 1.00017E-08-7.24365E-04-2.42375E-09
 -1       260 8.46195E-10-6.20416E-04-1.64273E-04
 -1       261 5.73324E-10-2.75990E-04-2.44045E-10
 -3
    1PSTEP                         4           4           1          
  100CL  104 1.60000E-02          81                     1    4           1
 -4  DISP        4    1
 -5  D1          1    2    1    0
 -5  D2          1    2    2    0
 -5  D3          1    2    3    0
 -5  ALL         1    2    0    0    1ALL
 -1         5 0.00000E+00 0.00000E+00 0.00000E+00
 -1         6 0.00000E+00 0.00000E+00 0.00000E+00
 -1         7 0.00000E+00 0.00000E+00 0.00000E+00
 -1         8 0.00000E+00 0.00000E+00 0.00000E+00
 -1        21 0.00000E+00 0.00000E+00 0.00000E+00
 -1        22 0.00000E+00 0.00000E+00 0.00000E+00
 -1        23 0.00000E+00 0.00000E+00 0.00000E+00
 -1        24 0.00000E+00 0.00000E+00 0.00000E+00
 -1        25 0.00000E+00 0.00000E+00 0.00000E+00
 -1        26 0.00000E+00 0.00000E+00 0.00000E+00
 -1        27 0.00000E+00 0.00000E+00 0.00000E+00
 -1        28 0.00000E+00 0.00000E+00 0.00000E+00
 -1        29 0.00000E+00 0.00000E+00 0.00000E+00
 -1        30 0.00000E+00 0.00000E+00 0.00000E+00
 -1        31 0.00000E+00 0.00000E+00 0.00000E+00
 -1        32 0.00000E+00 0.00000E+00 0.00000E+00
 -1        44-9.40692E-05 9.88711E-04-1.43898E-04
 -1        45-2.16886E-05 7.68097E-04-2.31918E-04
 -1        46 2.56482E-05 5.62017E-04-2.65561E-04
 -1        47-3.31325E-05 2.27579E-04-1.74715E-04
 -1        48 3.31333E-05 2.27579E-04-1.74716E-04
 -1        49-2.56444E-05 5.62016E-04-2.65563E-04
 -1        50 2.16930E-05 7.68098E-04-2.31922E-04
 -1        51 9.40832E-05 9.88705E-04-1.43901E-04
 -1        74 9.39929E-05 9.88832E-04 1.43903E-04
 -1        75 2.16378E-05 7.68163E-04 2.31921E-04
 -1        76-2.56061E-05 5.61974E-04 2.65562E-04
 -1        77 3.31495E-05 2.27560E-04 1.74716E-04
 -1        89-9.39819E-05 9.88832E-04 1.43899E-04
 -1        90-2.16328E-05 7.68162E-04 2.31917E-04
 -1        91 2.56091E-05 5.61973E-04 2.65560E-04
 -1        92-3.31487E-05 2.27560E-04 1.74715E-04
 -1        98 0.00000E+00 0.00000E+00 0.00000E+00
 -1        99 0.00000E+00 0.00000E+00 0.00000E+00
 -1       100 0.00000E+00 0.00000E+00 0.00000E+00
 -1       101 0.00000E+00 0.00000E+00 0.00000E+00
 -1       102 0.00000E+00 0.00000E+00 0.00000E+00
 -1       124 3.31589E-06 9.09801E-04-1.35589E-04
 -1       125 5.01785E-09 1.08738E-03-1.42285E-04
 -1       126-3.30228E-06 9.09804E-04-1.35590E-04
 -1       127 3.20549E-09 8.00482E-04-2.56415E-04
 -1       128-2.14711E-06 5.89691E-04-2.84969E-04
 -1       129 1.07174E-09 5.46809E-04-2.90438E-04
 -1       130 2.14960E-06 5.89691E-04-2.84967E-04
 -1       131 2.85640E-10 2.30887E-04-1.69721E-04
 -1       153 7.77092E-05 1.17937E-03-6.39179E-05
 -1       154-4.09904E-09 1.04422E-03 1.53127E-09
 -1       155-7.76750E-05 1.17935E-03 6.39217E-05
 -1       156 1.11519E-08 8.65021E-04 8.21555E-09
 -1       157-1.55761E-05 4.87798E-04-1.14333E-04
 -1       158-4.66278E-09 4.98148E-04 4.64273E-09
 -1       159 1.55733E-05 4.87796E-04 1.14336E-04
 -1       160-1.51613E-09 1.89383E-04 1.07655E-09
 -1       182 3.34736E-06 9.09757E-04 1.35591E-04
 -1       183 6.18438E-09 1.08745E-03 1.42285E-04
 -1       184-3.33381E-06 9.09756E-04 1.35590E-04
 -1       185 2.40689E-09 8.00490E-04 2.56403E-04
 -1       186-2.14642E-06 5.89704E-04 2.84969E-04
 -1       187 1.56837E-09 5.46808E-04 2.90434E-04
 -1       188 2.14894E-06 5.89704E-04 2.84968E-04
 -1       189 1.90637E-10 2.30885E-04 1.69720E-04
 -1       211 7.76827E-05 1.17935E-03 6.39189E-05
 -1       212 9.65197E-09 1.04422E-03 1.02611E-09
 -1       213-7.76999E-05 1.17937E-03-6.39214E-05
 -1       214-5.53523E-09 8.65020E-04 5.78920E-09
 -1       215-1.55702E-05 4.87796E-04 1.14333E-04
 -1       216 7.60801E-09 4.98148E-04 1.52659E-09
 -1       217 1.55797E-05 4.87798E-04-1.14336E-04
 -1       218 2.37847E-09 1.89383E-04-2.41109E-10
 -1       250 2.62719E-09 1.17355E-03-6.34662E-05
 -1       251 2.89619E-08 7.43271E-04-5.43616E-11
 -1       252 2.40042E-09 9.48342E-04-3.64578E-10
 -1       253-2.13798E-08 7.43271E-04 1.74189E-09
 -1       254 3.48312E-09 1.17362E-03 6.34670E-05
 -1       255 3.18541E-09 8.46066E-04 7.46598E-10
 -1       256 1.26122E-09 4.81546E-04-1.27510E-04
 -1       257-1.09726E-09 5.62268E-04-6.57313E-10
 -1       258 8.66951E-10 4.99022E-04 3.17771E-10
 -1       259 2.80522E-09 5.62267E-04 3.93661E-10
 -1       260 1.45652E-09 4.81536E-04 1.27511E-04
 -1       261 2.97936E-10 2.14211E-04 2.31223E-10
 -3
    1PSTEP                         5           5           1          
  100CL  105 2.00000E-02          81                     1    5           1
 -4  DISP        4    1
 -5  D1          1    2    1    0
 -5  D2          1    2    2    0
 -5  D3          1    2    3    0
 -5  ALL         1    2    0    0    1ALL
 -1         5 0.00000E+00 0.00000E+00 0.00000E+00
 -1         6 0.00000E+00 0.00000E+00 0.00000E+00
 -1         7 0.00000E+00 0.00000E+00 0.00000E+00
 -1         8 0.00000E+00 0.00000E+00 0.00000E+00
 -1        21 0.00000E+00 0.00000E+00 0.00000E+00
 -1        22 0.00000E+00 0.00000E+00 0.00000E+00
 -1        23 0.00000E+00 0.00000E+00 0.00000E+00
 -1        24 0.00000E+00 0.00000E+00 0.00000E+00
 -1        25 0.00000E+00 0.00000E+00 0.00000E+00
 -1        26 0.00000E+00 0.00000E+00 0.00000E+00
 -1        27 0.00000E+00 0.00000E+00 0.00000E+00
 -1        28 0.00000E+00 0.00000E+00 0.00000E+00
 -1        29 0.00000E+00 0.00000E+00 0.00000E+00
 -1        30 0.00000E+00 0.00000E+00 0.00000E+00
 -1        31 0.00000E+00 0.00000E+00 0.00000E+00
 -1        32 0.00000E+00 0.00000E+00 0.00000E+00
 -1        44 7.08265E-05-7.46553E-04 1.08623E-04
 -1        45 1.62652E-05-5.79948E-04 1.75057E-04
 -1        46-1.92817E-05-4.24175E-04 2.00473E-04
 -1        47 2.50478E-05-1.71757E-04 1.31889E-04
 -1        48-2.50477E-05-1.71758E-04 1.31890E-04
 -1        49 1.92830E-05-4.24174E-04 2.00473E-04
 -1        50-1.62662E-05-5.79949E-04 1.75056E-04
 -1        51-7.08241E-05-7.46546E-04 1.08619E-04
 -1        74-7.11418E-05-7.46234E-04-1.08628E-04
 -1        75-1.64483E-05-5.79764E-04-1.75058E-04
 -1        76 1.94093E-05-4.24304E-04-2.00472E-04
 -1        77-2.49935E-05-1.71812E-04-1.31889E-04
 -1        89 7.11448E-05-7.46233E-04-1.08628E-04
 -1        90 1.64456E-05-5.79766E-04-1.75057E-04
 -1        91-1.94085E-05-4.24303E-04-2.00474E-04
 -1        92 2.49930E-05-1.71812E-04-1.31890E-04
 -1        98 0.00000E+00 0.00000E+00 0.00000E+00
 -1        99 0.00000E+00 0.00000E+00 0.00000E+00
 -1       100 0.00000E+00 0.00000E+00 0.00000E+00
 -1       101 0.00000E+00 0.00000E+00 0.00000E+00
 -1       102 0.00000E+00 0.00000E+00 0.00000E+00
 -1       124-2.53844E-06-6.86712E-04 1.02347E-04
 -1       125-8.15247E-10-8.20964E-04 1.07400E-04
 -1       126 2.53941E-06-6.86714E-04 1.02347E-04
 -1       127 4.48127E-10-6.04262E-04 1.93554E-04
 -1       128 1.61546E-06-4.45174E-04 2.15121E-04
 -1       129-1.46844E-10-4.12794E-04 2.19239E-04
 -1       130-1.61516E-06-4.45175E-04 2.15122E-04
 -1       131 1.56394E-10-1.74295E-04 1.28120E-04
 -1       153-5.85845E-05-8.90181E-04 4.82471E-05
 -1       154-6.01486E-08-7.88198E-04-2.62188E-09
 -1       155 5.86971E-05-8.90267E-04-4.82489E-05
 -1       156 9.31254E-09-6.53032E-04 1.99882E-08
 -1       157 1.17417E-05-3.68214E-04 8.63115E-05
 -1       158-7.93554E-09-3.76010E-04 6.80484E-09
 -1       159-1.17679E-05-3.68218E-04-8.63143E-05
 -1       160-2.74353E-10-1.42960E-04 1.42782E-09
 -1       182-2.45023E-06-6.86829E-04-1.02347E-04
 -1       183-2.75843E-09-8.20840E-04-1.07401E-04
 -1       184 2.44925E-06-6.86826E-04-1.02348E-04
 -1       185-2.20298E-11-6.04279E-04-1.93597E-04
 -1       186 1.61708E-06-4.45149E-04-2.15120E-04
 -1       187-1.18617E-09-4.12780E-04-2.19253E-04
 -1       188-1.61789E-06-4.45149E-04-2.15120E-04
 -1       189-3.07314E-11-1.74296E-04-1.28123E-04
 -1       211-5.86949E-05-8.90269E-04-4.82531E-05
 -1       212 5.99365E-08-7.88202E-04 1.85070E-10
 -1       213 5.85856E-05-8.90179E-04 4.82469E-05
 -1       214-8.68020E-09-6.53031E-04 2.04121E-08
 -1       215 1.17677E-05-3.68219E-04-8.63136E-05
 -1       216 6.71286E-09-3.76012E-04 6.96050E-09
 -1       217-1.17417E-05-3.68215E-04 8.63115E-05
 -1       218 1.77878E-10-1.42960E-04 1.32329E-09
 -1       250 5.80298E-10-8.86118E-04 4.79118E-05
 -1       251 9.39929E-08-5.61061E-04-5.12024E-09
 -1       252 1.80087E-09-7.15986E-04-1.14866E-09
 -1       253-9.30290E-08-5.61059E-04-7.68135E-09
 -1       254-9.01344E-10-8.85928E-04-4.79015E-05
 -1       255-3.18520E-11-6.38667E-04-1.20206E-09
 -1       256-4.11937E-11-3.63504E-04 9.62534E-05
 -1       257-1.13147E-08-4.24453E-04-3.52679E-10
 -1       258 7.18647E-11-3.76729E-04-4.08791E-10
 -1       259 1.09575E-08-4.24452E-04-1.55831E-10
 -1       260-4.67555E-10-3.63527E-04-9.62544E-05
 -1       261-1.90851E-10-1.61705E-04-4.17204E-12
 -3
    1PSTEP                         6           6           1          
  100CL  106 2.40000E-02          81                     1    6           1
 -4  DISP        4    1
 -5  D1          1    2    1    0
 -5  D2          1    2    2    0
 -5  D3          1    2    3    0
 -5  ALL         1    2    0    0    1ALL
 -1         5 0.00000E+00 0.00000E+00 0.00000E+00
 -1         6 0.00000E+00 0.00000E+00 0.00000E+00
 -1         7 0.00000E+00 0.00000E+00 0.00000E+00
 -1         8 0.00000E+00 0.00000E+00 0.00000E+00
 -1        21 0.00000E+00 0.00000E+00 0.00000E+00
 -1        22 0.00000E+00 0.00000E+00 0.00000E+00
 -1        23 0.00000E+00 0.00000E+00 0.00000E+00
 -1        24 0.00000E+00 0.00000E+00 0.00000E+00
 -1        25 0.00000E+00 0.00000E+00 0.00000E+00
 -1        26 0.00000E+00 0.00000E+00 0.00000E+00
 -1        27 0.00000E+00 0.00000E+00 0.00000E+00
 -1        28 0.00000E+00 0.00000E+00 0.00000E+00
 -1        29 0.00000E+00 0.00000E+00 0.00000E+00
 -1        30 0.00000E+00 0.00000E+00 0.00000E+00
 -1        31 0.00000E+00 0.00000E+00 0.00000E+00
 -1        32 0.00000E+00 0.00000E+00 0.00000E+00
 -1        44-5.13915E-05 5.41410E-04-7.87437E-05
 -1        45-1.18168E-05 4.20542E-04-1.26952E-04
 -1        46 1.40085E-05 3.07601E-04-1.45376E-04
 -1        47-1.81515E-05 1.24549E-04-9.56388E-05