    1C
    1UUSER                                                              
    1UDATE              12.july.2018                                    
    1UTIME              16:47:24                                        
    1UHOST                                                              
    1UPGM               CalculiX                                        
    1UVERSION           Version 2.13                             
    1UCOMPILETIME       jue jun 14 00:40:39 CEST 2018                    
    1UDIR                                                               
    1UDBN                                                               
    1UMAT    1EL                                                        
    2C                            81                                     1
 -1         5 0.00000E+00 0.00000E+00 8.00000E+00
 -1         6 1.00000E+00 0.00000E+00 8.00000E+00
 -1         7 1.00000E+00 1.00000E+00 8.00000E+00
 -1         8 0.00000E+00 1.00000E+00 8.00000E+00
 -1        21 2.50000E-01 0.00000E+00 8.00000E+00
 -1        22 5.00000E-01 0.00000E+00 8.00000E+00
 -1        23 7.50000E-01 0.00000E+00 8.00000E+00
 -1        24 1.00000E+00 2.50000E-01 8.00000E+00
 -1        25 1.00000E+00 5.00000E-01 8.00000E+00
 -1        26 1.00000E+00 7.50000E-01 8.00000E+00
 -1        27 7.50000E-01 1.00000E+00 8.00000E+00
 -1        28 5.00000E-01 1.00000E+00 8.00000E+00
 -1        29 2.50000E-01 1.00000E+00 8.00000E+00
 -1        30 0.00000E+00 7.50000E-01 8.00000E+00
 -1        31 0.00000E+00 5.00000E-01 8.00000E+00
 -1        32 0.00000E+00 2.50000E-01 8.00000E+00
 -1        44 1.00000E+00 0.00000E+00 6.00000E+00
 -1        45 1.00000E+00 0.00000E+00 6.50000E+00
 -1        46 1.00000E+00 0.00000E+00 7.00000E+00
 -1        47 1.00000E+00 0.00000E+00 7.50000E+00
 -1        48 0.00000E+00 0.00000E+00 7.50000E+00
 -1        49 0.00000E+00 0.00000E+00 7.00000E+00
 -1        50 0.00000E+00 0.00000E+00 6.50000E+00
 -1        51 0.00000E+00 0.00000E+00 6.00000E+00
 -1        74 1.00000E+00 1.00000E+00 6.00000E+00
 -1        75 1.00000E+00 1.00000E+00 6.50000E+00
 -1        76 1.00000E+00 1.00000E+00 7.00000E+00
 -1        77 1.00000E+00 1.00000E+00 7.50000E+00
 -1        89 0.00000E+00 1.00000E+00 6.00000E+00
 -1        90 0.00000E+00 1.00000E+00 6.50000E+00
 -1        91 0.00000E+00 1.00000E+00 7.00000E+00
 -1        92 0.00000E+00 1.00000E+00 7.50000E+00
 -1        98 5.00000E-01 2.50000E-01 8.00000E+00
 -1        99 2.50000E-01 5.00000E-01 8.00000E+00
 -1       100 5.00000E-01 5.00000E-01 8.00000E+00
 -1       101 7.50000E-01 5.00000E-01 8.00000E+00
 -1       102 5.00000E-01 7.50000E-01 8.00000E+00
 -1       124 2.50000E-01 0.00000E+00 6.00000E+00
 -1       125 5.00000E-01 0.00000E+00 6.00000E+00
 -1       126 7.50000E-01 0.00000E+00 6.00000E+00
 -1       127 5.00000E-01 0.00000E+00 6.50000E+00
 -1       128 2.50000E-01 0.00000E+00 7.00000E+00
 -1       129 5.00000E-01 0.00000E+00 7.00000E+00
 -1       130 7.50000E-01 0.00000E+00 7.00000E+00
 -1       131 5.00000E-01 0.00000E+00 7.50000E+00
 -1       153 1.00000E+00 2.50000E-01 6.00000E+00
 -1       154 1.00000E+00 5.00000E-01 6.00000E+00
 -1       155 1.00000E+00 7.50000E-01 6.00000E+00
 -1       156 1.00000E+00 5.00000E-01 6.50000E+00
 -1       157 1.00000E+00 2.50000E-01 7.00000E+00
 -1       158 1.00000E+00 5.00000E-01 7.00000E+00
 -1       159 1.00000E+00 7.50000E-01 7.00000E+00
 -1       160 1.00000E+00 5.00000E-01 7.50000E+00
 -1       182 7.50000E-01 1.00000E+00 6.00000E+00
 -1       183 5.00000E-01 1.00000E+00 6.00000E+00
 -1       184 2.50000E-01 1.00000E+00 6.00000E+00
 -1       185 5.00000E-01 1.00000E+00 6.50000E+00
 -1       186 7.50000E-01 1.00000E+00 7.00000E+00
 -1       187 5.00000E-01 1.00000E+00 7.00000E+00
 -1       188 2.50000E-01 1.00000E+00 7.00000E+00
 -1       189 5.00000E-01 1.00000E+00 7.50000E+00
 -1       211 0.00000E+00 7.50000E-01 6.00000E+00
 -1       212 0.00000E+00 5.00000E-01 6.00000E+00
 -1       213 0.00000E+00 2.50000E-01 6.00000E+00
 -1       214 0.00000E+00 5.00000E-01 6.50000E+00
 -1       215 0.00000E+00 7.50000E-01 7.00000E+00
 -1       216 0.00000E+00 5.00000E-01 7.00000E+00
 -1       217 0.00000E+00 2.50000E-01 7.00000E+00
 -1       218 0.00000E+00 5.00000E-01 7.50000E+00
 -1       250 5.00000E-01 2.50000E-01 6.00000E+00
 -1       251 2.50000E-01 5.00000E-01 6.00000E+00
 -1       252 5.00000E-01 5.00000E-01 6.00000E+00
 -1       253 7.50000E-01 5.00000E-01 6.00000E+00
 -1       254 5.00000E-01 7.50000E-01 6.00000E+00
 -1       255 5.00000E-01 5.00000E-01 6.50000E+00
 -1       256 5.00000E-01 2.50000E-01 7.00000E+00
 -1       257 2.50000E-01 5.00000E-01 7.00000E+00
 -1       258 5.00000E-01 5.00000E-01 7.00000E+00
 -1       259 7.50000E-01 5.00000E-01 7.00000E+00
 -1       260 5.00000E-01 7.50000E-01 7.00000E+00
 -1       261 5.00000E-01 5.00000E-01 7.50000E+00
 -3
    3C                             8                                     1
 -1        25    4    0    1
 -2        51       125       252       212        49       129       258       216       124       250
 -2       251       213        50       127       255       214       128       256       257       217
 -1        26    4    0    1
 -2       125        44       154       252       129        46       158       258       126       153
 -2       253       250       127        45       156       255       130       157       259       256
 -1        27    4    0    1
 -2       212       252       183        89       216       258       187        91       251       254
 -2       184       211       214       255       185        90       257       260       188       215
 -1        28    4    0    1
 -2       252       154        74       183       258       158        76       187       253       155
 -2       182       254       255       156        75       185       259       159       186       260
 -1        29    4    0    1
 -2        49       129       258       216         5        22       100        31       128       256
 -2       257       217        48       131       261       218        21        98        99        32
 -1        30    4    0    1
 -2       129        46       158       258        22         6        25       100       130       157
 -2       259       256       131        47       160       261        23        24       101        98
 -1        31    4    0    1
 -2       216       258       187        91        31       100        28         8       257       260
 -2       188       215       218       261       189        92        99       102        29        30
 -1        32    4    0    1
 -2       258       158        76       187       100        25         7        28       259       159
 -2       186       260       261       160        77       189       101        26        27       102
 -3
    1PSTEP                         1           1           1          
  100CL  101 4.00000E-03          81                     1    1           1
 -4  DISP        4    1
 -5  D1          1    2    1    0
 -5  D2          1    2    2    0
 -5  D3          1    2    3    0
 -5  ALL         1    2    0    0    1ALL
 -1         5 0.00000E+00 0.00000E+00 0.00000E+00
 -1         6 0.00000E+00 0.00000E+00 0.00000E+00
 -1         7 0.00000E+00 0.00000E+00 0.00000E+00
 -1         8 0.00000E+00 0.00000E+00 0.00000E+00
 -1        21 0.00000E+00 0.00000E+00 0.00000E+00
 -1        22 0.00000E+00 0.00000E+00 0.00000E+00
 -1        23 0.00000E+00 0.00000E+00 0.00000E+00
 -1        24 0.00000E+00 0.00000E+00 0.00000E+00
 -1        25 0.00000E+00 0.00000E+00 0.00000E+00
 -1        26 0.00000E+00 0.00000E+00 0.00000E+00
 -1        27 0.00000E+00 0.00000E+00 0.00000E+00
 -1        28 0.00000E+00 0.00000E+00 0.00000E+00
 -1        29 0.00000E+00 0.00000E+00 0.00000E+00
 -1        30 0.00000E+00 0.00000E+00 0.00000E+00
 -1        31 0.00000E+00 0.00000E+00 0.00000E+00
 -1        32 0.00000E+00 0.00000E+00 0.00000E+00
 -1        44 9.14643E-05-3.20137E-03 3.63436E-04
 -1        45 2.19501E-05-2.43041E-03 7.49461E-04
 -1        46-5.97655E-05-1.82167E-03 8.39464E-04
 -1        47 1.01176E-04-7.34691E-04 5.34706E-04
 -1        48-1.01188E-04-7.34703E-04 5.34743E-04
 -1        49 5.98669E-05-1.82157E-03 8.39495E-04
 -1        50-2.20431E-05-2.43050E-03 7.49127E-04
 -1        51-9.07404E-05-3.20064E-03 3.62237E-04
 -1        74-1.39907E-05-3.54207E-03-4.17734E-04
 -1        75 3.60433E-05-2.55407E-03-7.86192E-04
 -1        76 1.08990E-05-1.80391E-03-8.59996E-04
 -1        77-1.37717E-04-6.69546E-04-5.48389E-04
 -1        89 1.32680E-05-3.54135E-03-4.16535E-04
 -1        90-3.59497E-05-2.55416E-03-7.85858E-04
 -1        91-1.10002E-05-1.80381E-03-8.60027E-04
 -1        92 1.37729E-04-6.69558E-04-5.48426E-04
 -1        98 0.00000E+00 0.00000E+00 0.00000E+00
 -1        99 0.00000E+00 0.00000E+00 0.00000E+00
 -1       100 0.00000E+00 0.00000E+00 0.00000E+00
 -1       101 0.00000E+00 0.00000E+00 0.00000E+00
 -1       102 0.00000E+00 0.00000E+00 0.00000E+00
 -1       124-8.65531E-06-2.87174E-03 3.36744E-04
 -1       125 1.07866E-07-3.20659E-03 3.84488E-04
 -1       126 9.06518E-06-2.87215E-03 3.37173E-04
 -1       127-1.80724E-08-2.48314E-03 7.17936E-04
 -1       128 2.49455E-05-1.87511E-03 8.71569E-04
 -1       129-2.60008E-09-1.76220E-03 8.69724E-04
 -1       130-2.48944E-05-1.87515E-03 8.71608E-04
 -1       131 3.17430E-09-7.44053E-04 5.23033E-04
 -1       153-6.93968E-05-3.73562E-03 1.54948E-04
 -1       154-5.44861E-05-3.00925E-03-2.96069E-05
 -1       155 7.46808E-05-3.82560E-03-2.08116E-04
 -1       156-3.20526E-05-2.58244E-03-4.98074E-05
 -1       157 1.22538E-05-1.60653E-03 3.41461E-04
 -1       158 3.86911E-05-1.72166E-03-1.23051E-05
 -1       159 2.27622E-05-1.62723E-03-3.61942E-04
 -1       160 1.82253E-05-6.62950E-04 8.84410E-06
 -1       182-4.09037E-05-2.73768E-03-3.89194E-04
 -1       183-1.07332E-07-3.50172E-03-4.28773E-04
 -1       184 4.04952E-05-2.73727E-03-3.88765E-04
 -1       185 1.82959E-08-2.64181E-03-7.18994E-04
 -1       186 2.05077E-05-2.04569E-03-9.14477E-04
 -1       187 2.79390E-09-1.91283E-03-9.20741E-04
 -1       188-2.05586E-05-2.04565E-03-9.14437E-04
 -1       189-3.11995E-09-7.76984E-04-5.49041E-04
 -1       211-7.50957E-05-3.82519E-03-2.07686E-04
 -1       212 5.44869E-05-3.00904E-03-2.96070E-05
 -1       213 6.98121E-05-3.73521E-03 1.54518E-04
 -1       214 3.20532E-05-2.58248E-03-4.98075E-05
 -1       215-2.27973E-05-1.62718E-03-3.61903E-04
 -1       216-3.86911E-05-1.72167E-03-1.23053E-05
 -1       217-1.22184E-05-1.60647E-03 3.41422E-04
 -1       218-1.82253E-05-6.62944E-04 8.84402E-06
 -1       250 9.69201E-08-3.36164E-03 1.02077E-04
 -1       251 8.92588E-06-2.44583E-03 1.39355E-05
 -1       252 1.46873E-10-2.60043E-03-8.79704E-06
 -1       253-8.92555E-06-2.44602E-03 1.39356E-05
 -1       254-9.64327E-08-3.51186E-03-2.50982E-04
 -1       255 1.13799E-10-2.68498E-03-2.72909E-05
 -1       256-1.35402E-08-1.55852E-03 3.81879E-04
 -1       257-2.08887E-05-1.76318E-03-1.96575E-05
 -1       258 7.44291E-11-1.61263E-03-1.77712E-05
 -1       259 2.08888E-05-1.76315E-03-1.96575E-05
 -1       260 1.36865E-08-1.62781E-03-3.97334E-04
 -1       261 2.14795E-11-7.14498E-04 1.16316E-06
 -3
    1PSTEP                         2           2           1          
  100CL  102 8.00000E-03          81                     1    2           1
 -4  DISP        4    1
 -5  D1          1    2    1    0
 -5  D2          1    2    2    0
 -5  D3          1    2    3    0
 -5  ALL         1    2    0    0    1ALL
 -1         5 0.00000E+00 0.00000E+00 0.00000E+00
 -1         6 0.00000E+00 0.00000E+00 0.00000E+00
 -1         7 0.00000E+00 0.00000E+00 0.00000E+00
 -1         8 0.00000E+00 0.00000E+00 0.00000E+00
 -1        21 0.00000E+00 0.00000E+00 0.00000E+00
 -1        22 0.00000E+00 0.00000E+00 0.00000E+00
 -1        23 0.00000E+00 0.00000E+00 0.00000E+00
 -1        24 0.00000E+00 0.00000E+00 0.00000E+00
 -1        25 0.00000E+00 0.00000E+00 0.00000E+00
 -1        26 0.00000E+00 0.00000E+00 0.00000E+00
 -1        27 0.00000E+00 0.00000E+00 0.00000E+00
 -1        28 0.00000E+00 0.00000E+00 0.00000E+00
 -1        29 0.00000E+00 0.00000E+00 0.00000E+00
 -1        30 0.00000E+00 0.00000E+00 0.00000E+00
 -1        31 0.00000E+00 0.00000E+00 0.00000E+00
 -1        32 0.00000E+00 0.00000E+00 0.00000E+00
 -1        44-7.98356E-05 1.09261E-03-1.61960E-04
 -1        45 3.31304E-07 8.21799E-04-2.89595E-04
 -1        46 2.32100E-05 6.40163E-04-2.73445E-04
 -1        47-2.87095E-05 2.79102E-04-1.96374E-04
 -1        48 2.94996E-05 2.79395E-04-1.97425E-04
 -1        49-2.08549E-05 6.40066E-04-2.75425E-04
 -1        50 4.43609E-06 8.22420E-04-2.91743E-04
 -1        51 8.63859E-05 1.09048E-03-1.62881E-04
 -1        74 1.18035E-04 9.75126E-04 1.44648E-04
 -1        75 2.69275E-05 7.75887E-04 2.85034E-04
 -1        76-3.91691E-05 6.51008E-04 2.65237E-04
 -1        77 1.83281E-05 3.00027E-04 1.91262E-04
 -1        89-1.11780E-04 9.77414E-04 1.43961E-04
 -1        90-2.20030E-05 7.75151E-04 2.82865E-04
 -1        91 4.14055E-05 6.51206E-04 2.63199E-04
 -1        92-1.75190E-05 2.99719E-04 1.90134E-04
 -1        98 0.00000E+00 0.00000E+00 0.00000E+00
 -1        99 0.00000E+00 0.00000E+00 0.00000E+00
 -1       100 0.00000E+00 0.00000E+00 0.00000E+00
 -1       101 0.00000E+00 0.00000E+00 0.00000E+00
 -1       102 0.00000E+00 0.00000E+00 0.00000E+00
 -1       124 8.83593E-05 1.01252E-03-1.52856E-04
 -1       125 3.53390E-06 1.03022E-03-1.57487E-04
 -1       126-8.15417E-05 1.01345E-03-1.52189E-04
 -1       127 2.19470E-06 8.50003E-04-2.11752E-04
 -1       128-2.37907E-05 6.43107E-04-3.01721E-04
 -1       129 1.23376E-06 6.18012E-04-3.11212E-04
 -1       130 2.61691E-05 6.43189E-04-3.00800E-04
 -1       131 3.23380E-07 2.69875E-04-1.89190E-04
 -1       153 8.46498E-05 1.37760E-03-7.71345E-05
 -1       154-1.44095E-05 1.32502E-03-8.08970E-06
 -1       155-8.11282E-05 1.34523E-03 5.55931E-05
 -1       156-6.67447E-06 8.37367E-04-1.31504E-05
 -1       157-1.45041E-05 6.03340E-04-1.18937E-04
 -1       158 1.12401E-05 6.54596E-04-4.87009E-06
 -1       159 2.53567E-05 5.99249E-04 1.12493E-04
 -1       160 6.13532E-06 2.29192E-04 2.12337E-06
 -1       182 8.81448E-05 1.05134E-03 1.32259E-04
 -1       183 3.76317E-06 9.23989E-04 1.53904E-04
 -1       184-8.12427E-05 1.05230E-03 1.31377E-04
 -1       185 2.11296E-06 8.05708E-04 2.03922E-04
 -1       186-2.79274E-05 5.91245E-04 2.90712E-04
 -1       187 1.30452E-06 5.71740E-04 2.99644E-04
 -1       188 3.03175E-05 5.91386E-04 2.89828E-04
 -1       189 3.14754E-07 2.59601E-04 1.83495E-04
 -1       211 8.47891E-05 1.34605E-03 5.45190E-05
 -1       212 1.55980E-05 1.32481E-03-7.25351E-06
 -1       213-8.08782E-05 1.37665E-03-7.80685E-05
 -1       214 1.32164E-05 8.37431E-04-1.47159E-05
 -1       215-2.36522E-05 5.99355E-04 1.10639E-04
 -1       216-1.02040E-05 6.54546E-04-7.09333E-06
 -1       217 1.62728E-05 6.03234E-04-1.20812E-04
 -1       218-5.03938E-06 2.29200E-04 4.93236E-07
 -1       250 4.33343E-06 9.90152E-04-7.28102E-05
 -1       251 6.32362E-06 8.40535E-04-7.55104E-06
 -1       252 5.07070E-06 7.53334E-04-9.45649E-06
 -1       253-4.43914E-07 8.40653E-04-4.09911E-06
 -1       254 4.46559E-06 9.32839E-04 5.27506E-05
 -1       255 1.53334E-06 9.76492E-04-8.82050E-06
 -1       256 1.64898E-06 5.27671E-04-1.43926E-04
 -1       257-4.93061E-06 6.18835E-04-5.24054E-06
 -1       258 2.02756E-06 4.85299E-04-5.36297E-06
 -1       259 7.44337E-06 6.18858E-04-5.02911E-06
 -1       260 1.68096E-06 5.07170E-04 1.34094E-04
 -1       261 2.40164E-07 2.43920E-04 7.69684E-07
 -3
    1PSTEP                         3           3           1          
  100CL  103 1.20000E-02          81                     1    3           1
 -4  DISP        4    1
 -5  D1          1    2    1    0
 -5  D2          1    2    2    0
 -5  D3          1    2    3    0
 -5  ALL         1    2    0    0    1ALL
 -1         5 0.00000E+00 0.00000E+00 0.00000E+00
 -1         6 0.00000E+00 0.00000E+00 0.00000E+00
 -1         7 0.00000E+00 0.00000E+00 0.00000E+00
 -1         8 0.00000E+00 0.00000E+00 0.00000E+00
 -1        21 0.00000E+00 0.00000E+00 0.00000E+00
 -1        22 0.00000E+00 0.00000E+00 0.00000E+00
 -1        23 0.00000E+00 0.00000E+00 0.00000E+00
 -1        24 0.00000E+00 0.00000E+00 0.00000E+00
 -1        25 0.00000E+00 0.00000E+00 0.00000E+00
 -1        26 0.00000E+00 0.00000E+00 0.00000E+00
 -1        27 0.00000E+00 0.00000E+00 0.00000E+00
 -1        28 0.00000E+00 0.00000E+00 0.00000E+00
 -1        29 0.00000E+00 0.00000E+00 0.00000E+00
 -1        30 0.00000E+00 0.00000E+00 0.00000E+00
 -1        31 0.00000E+00 0.00000E+00 0.00000E+00
 -1        32 0.00000E+00 0.00000E+00 0.00000E+00
 -1        44 5.55024E-05-1.28569E-03 1.77935E-04
 -1        45 1.66324E-05-9.68304E-04 3.13653E-04
 -1        46-2.70807E-05-7.24097E-04 3.41207E-04
 -1        47 4.10507E-05-2.94336E-04 2.20403E-04
 -1        48-4.12216E-05-2.94384E-04 2.20579E-04
 -1        49 2.65307E-05-7.24130E-04 3.41570E-04
 -1        50-1.75574E-05-9.68345E-04 3.14004E-04
 -1        51-5.67222E-05-1.28530E-03 1.78021E-04
 -1        74-4.85283E-05-1.34929E-03-1.83389E-04
 -1        75 3.07240E-06-9.96313E-04-3.17474E-04
 -1        76 1.42261E-05-7.07349E-04-3.36162E-04
 -1        77-4.61571E-05-2.85436E-04-2.19451E-04
 -1        89 4.77820E-05-1.35007E-03-1.83773E-04
 -1        90-4.24698E-06-9.96051E-04-3.17109E-04
 -1        91-1.45777E-05-7.07503E-04-3.35700E-04
 -1        92 4.59555E-05-2.85360E-04-2.19144E-04
 -1        98 0.00000E+00 0.00000E+00 0.00000E+00
 -1        99 0.00000E+00 0.00000E+00 0.00000E+00
 -1       100 0.00000E+00 0.00000E+00 0.00000E+00
 -1       101 0.00000E+00 0.00000E+00 0.00000E+00
 -1       102 0.00000E+00 0.00000E+00 0.00000E+00
 -1       124-1.06567E-05-1.16283E-03 1.70495E-04
 -1       125-5.58607E-07-1.30854E-03 1.78643E-04
 -1       126 9.47085E-06-1.16301E-03 1.70505E-04
 -1       127-4.69380E-07-9.97709E-04 3.02199E-04
 -1       128 9.85658E-06-7.50880E-04 3.58561E-04
 -1       129-2.49707E-07-7.05016E-04 3.63308E-04
 -1       130-1.03731E-05-7.50870E-04 3.58379E-04
 -1       131-8.07874E-08-2.98010E-04 2.16487E-04
 -1       153-5.22893E-05-1.51548E-03 7.96017E-05
 -1       154-1.10708E-05-1.27626E-03-2.97466E-06
 -1       155 5.10344E-05-1.53084E-03-7.88998E-05
 -1       156-1.24353E-05-1.03835E-03-2.79908E-06
 -1       157 7.35305E-06-6.39667E-04 1.43703E-04
 -1       158 7.28785E-06-6.77811E-04-2.38729E-06
 -1       159-8.48513E-06-6.35643E-04-1.44696E-04
 -1       160 2.81936E-06-2.57184E-04-3.59213E-07
 -1       182-2.43062E-05-1.13112E-03-1.68091E-04
 -1       183-9.32393E-07-1.36219E-03-1.90393E-04
 -1       184 2.29791E-05-1.13141E-03-1.67801E-04
 -1       185-3.41208E-07-1.01561E-03-2.96650E-04
 -1       186 8.00090E-06-7.58024E-04-3.60345E-04
 -1       187-3.58474E-07-6.92193E-04-3.62926E-04
 -1       188-8.52790E-06-7.58119E-04-3.60221E-04
 -1       189-6.59402E-08-2.92689E-04-2.15802E-04
 -1       211-5.12447E-05-1.53099E-03-7.88565E-05
 -1       212 1.13973E-05-1.27590E-03-3.51106E-06
 -1       213 5.19117E-05-1.51516E-03 7.93947E-05
 -1       214 1.09801E-05-1.03846E-03-2.59100E-06
 -1       215 8.23170E-06-6.35680E-04-1.44345E-04
 -1       216-7.41862E-06-6.77716E-04-1.92312E-06
 -1       217-7.71462E-06-6.39627E-04 1.44100E-04
 -1       218-3.07266E-06-2.57199E-04 1.97450E-08
 -1       250-8.26173E-07-1.37236E-03 7.79648E-05
 -1       251-2.63801E-07-9.76825E-04-1.54227E-06
 -1       252-1.09333E-06-1.06924E-03 5.84144E-06
 -1       253-7.34968E-07-9.77026E-04-2.35587E-06
 -1       254-1.03665E-06-1.39029E-03-8.41079E-05
 -1       255-2.48803E-07-1.07555E-03-1.26509E-06
 -1       256-3.72821E-07-6.17205E-04 1.60351E-04
 -1       257-2.58809E-06-7.02315E-04 1.25793E-07
 -1       258-4.86816E-07-6.26500E-04-1.18527E-06
 -1       259 2.04298E-06-7.02359E-04 1.43979E-07
 -1       260-4.23004E-07-6.12890E-04-1.60359E-04
 -1       261-4.99915E-08-2.78486E-04-9.70083E-07
 -3
    1PSTEP                         4           4           1          
  100CL  104 1.60000E-02          81                     1    4           1
 -4  DISP        4    1
 -5  D1          1    2    1    0
 -5  D2          1    2    2    0
 -5  D3          1    2    3    0
 -5  ALL         1    2    0    0    1ALL
 -1         5 0.00000E+00 0.00000E+00 0.00000E+00
 -1         6 0.00000E+00 0.00000E+00 0.00000E+00
 -1         7 0.00000E+00 0.00000E+00 0.00000E+00
 -1         8 0.00000E+00 0.00000E+00 0.00000E+00
 -1        21 0.00000E+00 0.00000E+00 0.00000E+00
 -1        22 0.00000E+00 0.00000E+00 0.00000E+00
 -1        23 0.00000E+00 0.00000E+00 0.00000E+00
 -1        24 0.00000E+00 0.00000E+00 0.00000E+00
 -1        25 0.00000E+00 0.00000E+00 0.00000E+00
 -1        26 0.00000E+00 0.00000E+00 0.00000E+00
 -1        27 0.00000E+00 0.00000E+00 0.00000E+00
 -1        28 0.00000E+00 0.00000E+00 0.00000E+00
 -1        29 0.00000E+00 0.00000E+00 0.00000E+00
 -1        30 0.00000E+00 0.00000E+00 0.00000E+00
 -1        31 0.00000E+00 0.00000E+00 0.00000E+00
 -1        32 0.00000E+00 0.00000E+00 0.00000E+00
 -1        44-2.43850E-05 9.38619E-04-1.23853E-04
 -1        45-6.12149E-06 7.07925E-04-2.22393E-04
 -1        46 1.79510E-05 5.38262E-04-2.43240E-04
 -1        47-3.07801E-05 2.22783E-04-1.61015E-04
 -1        48 3.06780E-05 2.22772E-04-1.60981E-04
 -1        49-1.85256E-05 5.38081E-04-2.43034E-04
 -1        50 5.60806E-06 7.08069E-04-2.21996E-04
 -1        51 2.28555E-05 9.38400E-04-1.23021E-04
 -1        74 2.87428E-05 9.78365E-04 1.23453E-04
 -1        75-5.05743E-06 7.26296E-04 2.20129E-04
 -1        76-1.35624E-05 5.29010E-04 2.40255E-04
 -1        77 3.27270E-05 2.16048E-04 1.60438E-04
 -1        89-2.90627E-05 9.77157E-04 1.22560E-04
 -1        90 4.06417E-06 7.26701E-04 2.20323E-04
 -1        91 1.34113E-05 5.28739E-04 2.40674E-04
 -1        92-3.28901E-05 2.16127E-04 1.60749E-04
 -1        98 0.00000E+00 0.00000E+00 0.00000E+00
 -1        99 0.00000E+00 0.00000E+00 0.00000E+00
 -1       100 0.00000E+00 0.00000E+00 0.00000E+00
 -1       101 0.00000E+00 0.00000E+00 0.00000E+00
 -1       102 0.00000E+00 0.00000E+00 0.00000E+00
 -1       124-7.02696E-07 8.44897E-04-1.12481E-04
 -1       125-2.41310E-07 9.36408E-04-1.16427E-04
 -1       126-2.89177E-07 8.44992E-04-1.12451E-04
 -1       127-4.31748E-07 7.31123E-04-2.08961E-04
 -1       128-7.23791E-06 5.54206E-04-2.56336E-04
 -1       129-1.17020E-07 5.20701E-04-2.59969E-04
 -1       130 6.83901E-06 5.54292E-04-2.56530E-04
 -1       131-7.00800E-08 2.25231E-04-1.59563E-04
 -1       153 3.16489E-05 1.09214E-03-5.22729E-05
 -1       154 1.63163E-05 9.07316E-04-4.33680E-06
 -1       155-3.33343E-05 1.09036E-03 4.84557E-05
 -1       156 1.04684E-05 7.53499E-04 5.23869E-06
 -1       157-2.52747E-06 4.80136E-04-1.03295E-04
 -1       158-6.94351E-06 5.10163E-04 1.64805E-06
 -1       159 3.32797E-06 4.81158E-04 1.02901E-04
 -1       160-3.14654E-06 1.97966E-04-9.48013E-07
 -1       182 2.15312E-05 8.16166E-04 1.09124E-04
 -1       183-8.59379E-07 9.55458E-04 1.20454E-04
 -1       184-2.25756E-05 8.15640E-04 1.09262E-04
 -1       185-2.24810E-07 7.42175E-04 1.97905E-04
 -1       186-9.79054E-06 5.58597E-04 2.56197E-04
 -1       187-2.95492E-07 5.10783E-04 2.57055E-04
 -1       188 9.42394E-06 5.58451E-04 2.56279E-04
 -1       189-3.94206E-08 2.22921E-04 1.59844E-04
 -1       211 3.32110E-05 1.09014E-03 4.86293E-05
 -1       212-1.61589E-05 9.07959E-04-4.68949E-06
 -1       213-3.22512E-05 1.09233E-03-5.23902E-05
 -1       214-1.15615E-05 7.53264E-04 5.41655E-06
 -1       215-3.46101E-06 4.81123E-04 1.03110E-04
 -1       216 6.84332E-06 5.10377E-04 2.00236E-06
 -1       217 2.17122E-06 4.80159E-04-1.02945E-04
 -1       218 2.96133E-06 1.97936E-04-6.63506E-07
 -1       250-5.36607E-07 9.71137E-04-4.93724E-05
 -1       251-8.77179E-06 7.17357E-04-2.38437E-06
 -1       252-8.26681E-07 7.61872E-04 1.59525E-06
 -1       253 7.97639E-06 7.17019E-04-2.99441E-06
 -1       254-8.51421E-07 9.71999E-04 5.82121E-05
 -1       255-1.97768E-07 7.82536E-04 6.85762E-07
 -1       256-2.38723E-07 4.63587E-04-1.14655E-04
 -1       257 3.30403E-06 5.20660E-04 2.87223E-07
 -1       258-3.57514E-07 4.70721E-04-2.26364E-07
 -1       259-3.70655E-06 5.20553E-04 2.92109E-07
 -1       260-3.30620E-07 4.60866E-04 1.12349E-04
 -1       261-3.52351E-08 2.11102E-04 5.19095E-07
 -3
    1PSTEP                         5           5           1          
  100CL  105 2.00000E-02          81                     1    5           1
 -4  DISP        4    1
 -5  D1          1    2    1    0
 -5  D2          1    2    2    0
 -5  D3          1    2    3    0
 -5  ALL         1    2    0    0    1ALL
 -1         5 0.00000E+00 0.00000E+00 0.00000E+00
 -1         6 0.00000E+00 0.00000E+00 0.00000E+00
 -1         7 0.00000E+00 0.00000E+00 0.00000E+00
 -1         8 0.00000E+00 0.00000E+00 0.00000E+00
 -1        21 0.00000E+00 0.00000E+00 0.00000E+00
 -1        22 0.00000E+00 0.00000E+00 0.00000E+00
 -1        23 0.00000E+00 0.00000E+00 0.00000E+00
 -1        24 0.00000E+00 0.00000E+00 0.00000E+00
 -1        25 0.00000E+00 0.00000E+00 0.00000E+00
 -1        26 0.00000E+00 0.00000E+00 0.00000E+00
 -1        27 0.00000E+00 0.00000E+00 0.00000E+00
 -1        28 0.00000E+00 0.00000E+00 0.00000E+00
 -1        29 0.00000E+00 0.00000E+00 0.00000E+00
 -1        30 0.00000E+00 0.00000E+00 0.00000E+00
 -1        31 0.00000E+00 0.00000E+00 0.00000E+00
 -1        32 0.00000E+00 0.00000E+00 0.00000E+00
 -1        44 2.85023E-05-7.37403E-04 1.01706E-04
 -1        45 7.05216E-06-5.54350E-04 1.78721E-04
 -1        46-1.45399E-05-4.15899E-04 1.92631E-04
 -1        47 2.40058E-05-1.70015E-04 1.25332E-04
 -1        48-2.41319E-05-1.70046E-04 1.25446E-04
 -1        49 1.40738E-05-4.15965E-04 1.92901E-04
 -1        50-7.73601E-06-5.54337E-04 1.79041E-04
 -1        51-2.96225E-05-7.37254E-04 1.01996E-04
 -1        74-2.32466E-05-7.70332E-04-9.85843E-05
 -1        75 2.65443E-06-5.71932E-04-1.74099E-04
 -1        76 9.08386E-06-4.05947E-04-1.91045E-04
 -1        77-2.66333E-05-1.64328E-04-1.25760E-04
 -1        89 2.26935E-05-7.71074E-04-9.90064E-05
 -1        90-3.59527E-06-5.71679E-04-1.73827E-04
 -1        91-9.33355E-06-4.06101E-04-1.90666E-04
 -1        92 2.64751E-05-1.64263E-04-1.25503E-04
 -1        98 0.00000E+00 0.00000E+00 0.00000E+00
 -1        99 0.00000E+00 0.00000E+00 0.00000E+00
 -1       100 0.00000E+00 0.00000E+00 0.00000E+00
 -1       101 0.00000E+00 0.00000E+00 0.00000E+00
 -1       102 0.00000E+00 0.00000E+00 0.00000E+00
 -1       124-6.07024E-06-6.64254E-04 9.37204E-05
 -1       125-4.05098E-07-7.48464E-04 1.02307E-04
 -1       126 5.09919E-06-6.64322E-04 9.37119E-05
 -1       127-3.86630E-07-5.71258E-04 1.71039E-04
 -1       128 5.31991E-06-4.31647E-04 2.04071E-04
 -1       129-1.77794E-07-4.04922E-04 2.06251E-04
 -1       130-5.72450E-06-4.31619E-04 2.03914E-04
 -1       131-6.42167E-08-1.72462E-04 1.24132E-04
 -1       153-2.76897E-05-8.59856E-04 4.38106E-05
 -1       154-9.58473E-06-7.17768E-04 2.34171E-06
 -1       155 2.88082E-05-8.60132E-04-4.20268E-05
 -1       156-8.05252E-06-5.94818E-04-3.73100E-06
 -1       157 3.50950E-06-3.67983E-04 8.21070E-05
 -1       158 4.69171E-06-3.89198E-04-1.05687E-06
 -1       159-3.96820E-06-3.67313E-04-8.14756E-05
 -1       160 2.00987E-06-1.49735E-04 3.93333E-07
 -1       182-1.33942E-05-6.39946E-04-9.13104E-05
 -1       183-7.64458E-07-7.69439E-04-1.00987E-04
 -1       184 1.23347E-05-6.40243E-04-9.11059E-05
 -1       185-2.65275E-07-5.80232E-04-1.64220E-04
 -1       186 5.37027E-06-4.35120E-04-2.03259E-04
 -1       187-2.81273E-07-3.97195E-04-2.04118E-04
 -1       188-5.77086E-06-4.35209E-04-2.03162E-04
 -1       189-4.82426E-08-1.70119E-04-1.23910E-04
 -1       211-2.90223E-05-8.60271E-04-4.19302E-05
 -1       212 9.73381E-06-7.17406E-04 1.99060E-06
 -1       213 2.72628E-05-8.59637E-04 4.36966E-05
 -1       214 6.93058E-06-5.94943E-04-3.54665E-06
 -1       215 3.77580E-06-3.67342E-04-8.12127E-05
 -1       216-4.80924E-06-3.89091E-04-6.93778E-07
 -1       217-3.81797E-06-3.67956E-04 8.24328E-05
 -1       218-2.20327E-06-1.49751E-04 6.83397E-07
 -1       250-6.28864E-07-7.84989E-04 4.32984E-05
 -1       251 3.91153E-06-5.57391E-04 2.44842E-06
 -1       252-8.49386E-07-6.11950E-04-2.45021E-06
 -1       253-4.73527E-06-5.57587E-04 1.82697E-06
 -1       254-8.21898E-07-7.88641E-04-4.58807E-05
 -1       255-2.07256E-07-6.12582E-04-1.47750E-06
 -1       256-2.76505E-07-3.56577E-04 9.09751E-05
 -1       257-2.41191E-06-4.03789E-04-1.61381E-07
 -1       258-3.69401E-07-3.63540E-04 4.45426E-07
 -1       259 1.98914E-06-4.03842E-04-1.58391E-07
 -1       260-3.26889E-07-3.54448E-04-8.98358E-05
 -1       261-3.88945E-08-1.61494E-04 1.48319E-08
 -3
    1PSTEP                         6           6           1          
  100CL  106 2.40000E-02          81                     1    6           1
 -4  DISP        4    1
 -5  D1          1    2    1    0
 -5  D2          1    2    2    0
 -5  D3          1    2    3    0
 -5  ALL         1    2    0    0    1ALL
 -1         5 0.00000E+00 0.00000E+00 0.00000E+00
 -1         6 0.00000E+00 0.00000E+00 0.00000E+00
 -1         7 0.00000E+00 0.00000E+00 0.00000E+00
 -1         8 0.00000E+00 0.00000E+00 0.00000E+00
 -1        21 0.00000E+00 0.00000E+00 0.00000E+00
 -1        22 0.00000E+00 0.00000E+00 0.00000E+00
 -1        23 0.00000E+00 0.00000E+00 0.00000E+00
 -1        24 0.00000E+00 0.00000E+00 0.00000E+00
 -1        25 0.00000E+00 0.00000E+00 0.00000E+00
 -1        26 0.00000E+00 0.00000E+00 0.00000E+00
 -1        27 0.00000E+00 0.00000E+00 0.00000E+00
 -1        28 0.00000E+00 0.00000E+00 0.00000E+00
 -1        29 0.00000E+00 0.00000E+00 0.00000E+00
 -1        30 0.00000E+00 0.00000E+00 0.00000E+00
 -1        31 0.00000E+00 0.00000E+00 0.00000E+00
 -1        32 0.00000E+00 0.00000E+00 0.00000E+00
 -1        44-2.29866E-05 5.14433E-04-6.80071E-05
 -1        45-3.46592E-06 3.91408E-04-1.25295E-04
 -1        46 1.19203E-05 2.98751E-04-1.34654E-04
 -1        47-1.52754E-05 1.24989E-04-9.06085E-05