    1C
    1UUSER                                                              
    1UDATE              12.july.2018                                    
    1UTIME              16:49:39                                        
    1UHOST                                                              
    1UPGM               CalculiX                                        
    1UVERSION           Version 2.13                             
    1UCOMPILETIME       jue jun 14 00:40:39 CEST 2018                    
    1UDIR                                                               
    1UDBN                                                               
    1UMAT    1EL                                                        
    2C                           201                                     1
 -1         1 0.00000E+00 0.00000E+00 0.00000E+00
 -1         2 1.00000E+00 0.00000E+00 0.00000E+00
 -1         3 1.00000E+00 1.00000E+00 0.00000E+00
 -1         4 0.00000E+00 1.00000E+00 0.00000E+00
 -1         9 2.50000E-01 0.00000E+00 0.00000E+00
 -1        10 5.00000E-01 0.00000E+00 0.00000E+00
 -1        11 7.50000E-01 0.00000E+00 0.00000E+00
 -1        12 1.00000E+00 2.50000E-01 0.00000E+00
 -1        13 1.00000E+00 5.00000E-01 0.00000E+00
 -1        14 1.00000E+00 7.50000E-01 0.00000E+00
 -1        15 7.50000E-01 1.00000E+00 0.00000E+00
 -1        16 5.00000E-01 1.00000E+00 0.00000E+00
 -1        17 2.50000E-01 1.00000E+00 0.00000E+00
 -1        18 0.00000E+00 7.50000E-01 0.00000E+00
 -1        19 0.00000E+00 5.00000E-01 0.00000E+00
 -1        20 0.00000E+00 2.50000E-01 0.00000E+00
 -1        33 1.00000E+00 0.00000E+00 5.00000E-01
 -1        34 1.00000E+00 0.00000E+00 1.00000E+00
 -1        35 1.00000E+00 0.00000E+00 1.50000E+00
 -1        36 1.00000E+00 0.00000E+00 2.00000E+00
 -1        37 1.00000E+00 0.00000E+00 2.50000E+00
 -1        38 1.00000E+00 0.00000E+00 3.00000E+00
 -1        39 1.00000E+00 0.00000E+00 3.50000E+00
 -1        40 1.00000E+00 0.00000E+00 4.00000E+00
 -1        41 1.00000E+00 0.00000E+00 4.50000E+00
 -1        42 1.00000E+00 0.00000E+00 5.00000E+00
 -1        43 1.00000E+00 0.00000E+00 5.50000E+00
 -1        44 1.00000E+00 0.00000E+00 6.00000E+00
 -1        51 0.00000E+00 0.00000E+00 6.00000E+00
 -1        52 0.00000E+00 0.00000E+00 5.50000E+00
 -1        53 0.00000E+00 0.00000E+00 5.00000E+00
 -1        54 0.00000E+00 0.00000E+00 4.50000E+00
 -1        55 0.00000E+00 0.00000E+00 4.00000E+00
 -1        56 0.00000E+00 0.00000E+00 3.50000E+00
 -1        57 0.00000E+00 0.00000E+00 3.00000E+00
 -1        58 0.00000E+00 0.00000E+00 2.50000E+00
 -1        59 0.00000E+00 0.00000E+00 2.00000E+00
 -1        60 0.00000E+00 0.00000E+00 1.50000E+00
 -1        61 0.00000E+00 0.00000E+00 1.00000E+00
 -1        62 0.00000E+00 0.00000E+00 5.00000E-01
 -1        63 1.00000E+00 1.00000E+00 5.00000E-01
 -1        64 1.00000E+00 1.00000E+00 1.00000E+00
 -1        65 1.00000E+00 1.00000E+00 1.50000E+00
 -1        66 1.00000E+00 1.00000E+00 2.00000E+00
 -1        67 1.00000E+00 1.00000E+00 2.50000E+00
 -1        68 1.00000E+00 1.00000E+00 3.00000E+00
 -1        69 1.00000E+00 1.00000E+00 3.50000E+00
 -1        70 1.00000E+00 1.00000E+00 4.00000E+00
 -1        71 1.00000E+00 1.00000E+00 4.50000E+00
 -1        72 1.00000E+00 1.00000E+00 5.00000E+00
 -1        73 1.00000E+00 1.00000E+00 5.50000E+00
 -1        74 1.00000E+00 1.00000E+00 6.00000E+00
 -1        78 0.00000E+00 1.00000E+00 5.00000E-01
 -1        79 0.00000E+00 1.00000E+00 1.00000E+00
 -1        80 0.00000E+00 1.00000E+00 1.50000E+00
 -1        81 0.00000E+00 1.00000E+00 2.00000E+00
 -1        82 0.00000E+00 1.00000E+00 2.50000E+00
 -1        83 0.00000E+00 1.00000E+00 3.00000E+00
 -1        84 0.00000E+00 1.00000E+00 3.50000E+00
 -1        85 0.00000E+00 1.00000E+00 4.00000E+00
 -1        86 0.00000E+00 1.00000E+00 4.50000E+00
 -1        87 0.00000E+00 1.00000E+00 5.00000E+00
 -1        88 0.00000E+00 1.00000E+00 5.50000E+00
 -1        89 0.00000E+00 1.00000E+00 6.00000E+00
 -1        93 5.00000E-01 2.50000E-01 0.00000E+00
 -1        94 2.50000E-01 5.00000E-01 0.00000E+00
 -1        95 5.00000E-01 5.00000E-01 0.00000E+00
 -1        96 7.50000E-01 5.00000E-01 0.00000E+00
 -1        97 5.00000E-01 7.50000E-01 0.00000E+00
 -1       103 5.00000E-01 0.00000E+00 5.00000E-01
 -1       104 2.50000E-01 0.00000E+00 1.00000E+00
 -1       105 5.00000E-01 0.00000E+00 1.00000E+00
 -1       106 7.50000E-01 0.00000E+00 1.00000E+00
 -1       107 5.00000E-01 0.00000E+00 1.50000E+00
 -1       108 2.50000E-01 0.00000E+00 2.00000E+00
 -1       109 5.00000E-01 0.00000E+00 2.00000E+00
 -1       110 7.50000E-01 0.00000E+00 2.00000E+00
 -1       111 5.00000E-01 0.00000E+00 2.50000E+00
 -1       112 2.50000E-01 0.00000E+00 3.00000E+00
 -1       113 5.00000E-01 0.00000E+00 3.00000E+00
 -1       114 7.50000E-01 0.00000E+00 3.00000E+00
 -1       115 5.00000E-01 0.00000E+00 3.50000E+00
 -1       116 2.50000E-01 0.00000E+00 4.00000E+00
 -1       117 5.00000E-01 0.00000E+00 4.00000E+00
 -1       118 7.50000E-01 0.00000E+00 4.00000E+00
 -1       119 5.00000E-01 0.00000E+00 4.50000E+00
 -1       120 2.50000E-01 0.00000E+00 5.00000E+00
 -1       121 5.00000E-01 0.00000E+00 5.00000E+00
 -1       122 7.50000E-01 0.00000E+00 5.00000E+00
 -1       123 5.00000E-01 0.00000E+00 5.50000E+00
 -1       124 2.50000E-01 0.00000E+00 6.00000E+00
 -1       125 5.00000E-01 0.00000E+00 6.00000E+00
 -1       126 7.50000E-01 0.00000E+00 6.00000E+00
 -1       132 1.00000E+00 5.00000E-01 5.00000E-01
 -1       133 1.00000E+00 2.50000E-01 1.00000E+00
 -1       134 1.00000E+00 5.00000E-01 1.00000E+00
 -1       135 1.00000E+00 7.50000E-01 1.00000E+00
 -1       136 1.00000E+00 5.00000E-01 1.50000E+00
 -1       137 1.00000E+00 2.50000E-01 2.00000E+00
 -1       138 1.00000E+00 5.00000E-01 2.00000E+00
 -1       139 1.00000E+00 7.50000E-01 2.00000E+00
 -1       140 1.00000E+00 5.00000E-01 2.50000E+00
 -1       141 1.00000E+00 2.50000E-01 3.00000E+00
 -1       142 1.00000E+00 5.00000E-01 3.00000E+00
 -1       143 1.00000E+00 7.50000E-01 3.00000E+00
 -1       144 1.00000E+00 5.00000E-01 3.50000E+00
 -1       145 1.00000E+00 2.50000E-01 4.00000E+00
 -1       146 1.00000E+00 5.00000E-01 4.00000E+00
 -1       147 1.00000E+00 7.50000E-01 4.00000E+00
 -1       148 1.00000E+00 5.00000E-01 4.50000E+00
 -1       149 1.00000E+00 2.50000E-01 5.00000E+00
 -1       150 1.00000E+00 5.00000E-01 5.00000E+00
 -1       151 1.00000E+00 7.50000E-01 5.00000E+00
 -1       152 1.00000E+00 5.00000E-01 5.50000E+00
 -1       153 1.00000E+00 2.50000E-01 6.00000E+00
 -1       154 1.00000E+00 5.00000E-01 6.00000E+00
 -1       155 1.00000E+00 7.50000E-01 6.00000E+00
 -1       161 5.00000E-01 1.00000E+00 5.00000E-01
 -1       162 7.50000E-01 1.00000E+00 1.00000E+00
 -1       163 5.00000E-01 1.00000E+00 1.00000E+00
 -1       164 2.50000E-01 1.00000E+00 1.00000E+00
 -1       165 5.00000E-01 1.00000E+00 1.50000E+00
 -1       166 7.50000E-01 1.00000E+00 2.00000E+00
 -1       167 5.00000E-01 1.00000E+00 2.00000E+00
 -1       168 2.50000E-01 1.00000E+00 2.00000E+00
 -1       169 5.00000E-01 1.00000E+00 2.50000E+00
 -1       170 7.50000E-01 1.00000E+00 3.00000E+00
 -1       171 5.00000E-01 1.00000E+00 3.00000E+00
 -1       172 2.50000E-01 1.00000E+00 3.00000E+00
 -1       173 5.00000E-01 1.00000E+00 3.50000E+00
 -1       174 7.50000E-01 1.00000E+00 4.00000E+00
 -1       175 5.00000E-01 1.00000E+00 4.00000E+00
 -1       176 2.50000E-01 1.00000E+00 4.00000E+00
 -1       177 5.00000E-01 1.00000E+00 4.50000E+00
 -1       178 7.50000E-01 1.00000E+00 5.00000E+00
 -1       179 5.00000E-01 1.00000E+00 5.00000E+00
 -1       180 2.50000E-01 1.00000E+00 5.00000E+00
 -1       181 5.00000E-01 1.00000E+00 5.50000E+00
 -1       182 7.50000E-01 1.00000E+00 6.00000E+00
 -1       183 5.00000E-01 1.00000E+00 6.00000E+00
 -1       184 2.50000E-01 1.00000E+00 6.00000E+00
 -1       190 0.00000E+00 5.00000E-01 5.00000E-01
 -1       191 0.00000E+00 7.50000E-01 1.00000E+00
 -1       192 0.00000E+00 5.00000E-01 1.00000E+00
 -1       193 0.00000E+00 2.50000E-01 1.00000E+00
 -1       194 0.00000E+00 5.00000E-01 1.50000E+00
 -1       195 0.00000E+00 7.50000E-01 2.00000E+00
 -1       196 0.00000E+00 5.00000E-01 2.00000E+00
 -1       197 0.00000E+00 2.50000E-01 2.00000E+00
 -1       198 0.00000E+00 5.00000E-01 2.50000E+00
 -1       199 0.00000E+00 7.50000E-01 3.00000E+00
 -1       200 0.00000E+00 5.00000E-01 3.00000E+00
 -1       201 0.00000E+00 2.50000E-01 3.00000E+00
 -1       202 0.00000E+00 5.00000E-01 3.50000E+00
 -1       203 0.00000E+00 7.50000E-01 4.00000E+00
 -1       204 0.00000E+00 5.00000E-01 4.00000E+00
 -1       205 0.00000E+00 2.50000E-01 4.00000E+00
 -1       206 0.00000E+00 5.00000E-01 4.50000E+00
 -1       207 0.00000E+00 7.50000E-01 5.00000E+00
 -1       208 0.00000E+00 5.00000E-01 5.00000E+00
 -1       209 0.00000E+00 2.50000E-01 5.00000E+00
 -1       210 0.00000E+00 5.00000E-01 5.50000E+00
 -1       211 0.00000E+00 7.50000E-01 6.00000E+00
 -1       212 0.00000E+00 5.00000E-01 6.00000E+00
 -1       213 0.00000E+00 2.50000E-01 6.00000E+00
 -1       219 5.00000E-01 5.00000E-01 5.00000E-01
 -1       220 5.00000E-01 2.50000E-01 1.00000E+00
 -1       221 2.50000E-01 5.00000E-01 1.00000E+00
 -1       222 5.00000E-01 5.00000E-01 1.00000E+00
 -1       223 7.50000E-01 5.00000E-01 1.00000E+00
 -1       224 5.00000E-01 7.50000E-01 1.00000E+00
 -1       225 5.00000E-01 5.00000E-01 1.50000E+00
 -1       226 5.00000E-01 2.50000E-01 2.00000E+00
 -1       227 2.50000E-01 5.00000E-01 2.00000E+00
 -1       228 5.00000E-01 5.00000E-01 2.00000E+00
 -1       229 7.50000E-01 5.00000E-01 2.00000E+00
 -1       230 5.00000E-01 7.50000E-01 2.00000E+00
 -1       231 5.00000E-01 5.00000E-01 2.50000E+00
 -1       232 5.00000E-01 2.50000E-01 3.00000E+00
 -1       233 2.50000E-01 5.00000E-01 3.00000E+00
 -1       234 5.00000E-01 5.00000E-01 3.00000E+00
 -1       235 7.50000E-01 5.00000E-01 3.00000E+00
 -1       236 5.00000E-01 7.50000E-01 3.00000E+00
 -1       237 5.00000E-01 5.00000E-01 3.50000E+00
 -1       238 5.00000E-01 2.50000E-01 4.00000E+00
 -1       239 2.50000E-01 5.00000E-01 4.00000E+00
 -1       240 5.00000E-01 5.00000E-01 4.00000E+00
 -1       241 7.50000E-01 5.00000E-01 4.00000E+00
 -1       242 5.00000E-01 7.50000E-01 4.00000E+00
 -1       243 5.00000E-01 5.00000E-01 4.50000E+00
 -1       244 5.00000E-01 2.50000E-01 5.00000E+00
 -1       245 2.50000E-01 5.00000E-01 5.00000E+00
 -1       246 5.00000E-01 5.00000E-01 5.00000E+00
 -1       247 7.50000E-01 5.00000E-01 5.00000E+00
 -1       248 5.00000E-01 7.50000E-01 5.00000E+00
 -1       249 5.00000E-01 5.00000E-01 5.50000E+00
 -1       250 5.00000E-01 2.50000E-01 6.00000E+00
 -1       251 2.50000E-01 5.00000E-01 6.00000E+00
 -1       252 5.00000E-01 5.00000E-01 6.00000E+00
 -1       253 7.50000E-01 5.00000E-01 6.00000E+00
 -1       254 5.00000E-01 7.50000E-01 6.00000E+00
 -3
    3C                            24                                     1
 -1         1    4    0    1
 -2         1        10        95        19        61       105       222       192         9        93
 -2        94        20        62       103       219       190       104       220       221       193
 -1         2    4    0    1
 -2        10         2        13        95       105        34       134       222        11        12
 -2        96        93       103        33       132       219       106       133       223       220
 -1         3    4    0    1
 -2        19        95        16         4       192       222       163        79        94        97
 -2        17        18       190       219       161        78       221       224       164       191
 -1         4    4    0    1
 -2        95        13         3        16       222       134        64       163        96        14
 -2        15        97       219       132        63       161       223       135       162       224
 -1         5    4    0    1
 -2        61       105       222       192        59       109       228       196       104       220
 -2       221       193        60       107       225       194       108       226       227       197
 -1         6    4    0    1
 -2       105        34       134       222       109        36       138       228       106       133
 -2       223       220       107        35       136       225       110       137       229       226
 -1         7    4    0    1
 -2       192       222       163        79       196       228       167        81       221       224
 -2       164       191       194       225       165        80       227       230       168       195
 -1         8    4    0    1
 -2       222       134        64       163       228       138        66       167       223       135
 -2       162       224       225       136        65       165       229       139       166       230
 -1         9    4    0    1
 -2        59       109       228       196        57       113       234       200       108       226
 -2       227       197        58       111       231       198       112       232       233       201
 -1        10    4    0    1
 -2       109        36       138       228       113        38       142       234       110       137
 -2       229       226       111        37       140       231       114       141       235       232
 -1        11    4    0    1
 -2       196       228       167        81       200       234       171        83       227       230
 -2       168       195       198       231       169        82       233       236       172       199
 -1        12    4    0    1
 -2       228       138        66       167       234       142        68       171       229       139
 -2       166       230       231       140        67       169       235       143       170       236
 -1        13    4    0    1
 -2        57       113       234       200        55       117       240       204       112       232
 -2       233       201        56       115       237       202       116       238       239       205
 -1        14    4    0    1
 -2       113        38       142       234       117        40       146       240       114       141
 -2       235       232       115        39       144       237       118       145       241       238
 -1        15    4    0    1
 -2       200       234       171        83       204       240       175        85       233       236
 -2       172       199       202       237       173        84       239       242       176       203
 -1        16    4    0    1
 -2       234       142        68       171       240       146        70       175       235       143
 -2       170       236       237       144        69       173       241       147       174       242
 -1        17    4    0    1
 -2        55       117       240       204        53       121       246       208       116       238
 -2       239       205        54       119       243       206       120       244       245       209
 -1        18    4    0    1
 -2       117        40       146       240       121        42       150       246       118       145
 -2       241       238       119        41       148       243       122       149       247       244
 -1        19    4    0    1
 -2       204       240       175        85       208       246       179        87       239       242
 -2       176       203       206       243       177        86       245       248       180       207
 -1        20    4    0    1
 -2       240       146        70       175       246       150        72       179       241       147
 -2       174       242       243       148        71       177       247       151       178       248
 -1        21    4    0    1
 -2        53       121       246       208        51       125       252       212       120       244
 -2       245       209        52       123       249       210       124       250       251       213
 -1        22    4    0    1
 -2       121        42       150       246       125        44       154       252       122       149
 -2       247       244       123        43       152       249       126       153       253       250
 -1        23    4    0    1
 -2       208       246       179        87       212       252       183        89       245       248
 -2       180       207       210       249       181        88       251       254       184       211
 -1        24    4    0    1
 -2       246       150        72       179       252       154        74       183       247       151
 -2       178       248       249       152        73       181       253       155       182       254
 -3
    1PSTEP                         1           1           1          
  100CL  101 4.00000E-03         201                     1    1           1
 -4  DISP        4    1
 -5  D1          1    2    1    0
 -5  D2          1    2    2    0
 -5  D3          1    2    3    0
 -5  ALL         1    2    0    0    1ALL
 -1         1 0.00000E+00 0.00000E+00 0.00000E+00
 -1         2 0.00000E+00 0.00000E+00 0.00000E+00
 -1         3 0.00000E+00 0.00000E+00 0.00000E+00
 -1         4 0.00000E+00 0.00000E+00 0.00000E+00
 -1         9 0.00000E+00 0.00000E+00 0.00000E+00
 -1        10 0.00000E+00 0.00000E+00 0.00000E+00
 -1        11 0.00000E+00 0.00000E+00 0.00000E+00
 -1        12 0.00000E+00 0.00000E+00 0.00000E+00
 -1        13 0.00000E+00 0.00000E+00 0.00000E+00
 -1        14 0.00000E+00 0.00000E+00 0.00000E+00
 -1        15 0.00000E+00 0.00000E+00 0.00000E+00
 -1        16 0.00000E+00 0.00000E+00 0.00000E+00
 -1        17 0.00000E+00 0.00000E+00 0.00000E+00
 -1        18 0.00000E+00 0.00000E+00 0.00000E+00
 -1        19 0.00000E+00 0.00000E+00 0.00000E+00
 -1        20 0.00000E+00 0.00000E+00 0.00000E+00
 -1        33 6.86899E-05-1.67334E-04-2.20153E-04
 -1        34 3.37262E-05-5.18817E-04-4.03356E-04
 -1        35 2.77126E-05-1.04384E-03-5.20986E-04
 -1        36 8.95435E-06-1.64504E-03-5.83198E-04
 -1        37-5.52565E-06-2.27141E-03-5.91266E-04
 -1        38-2.32063E-05-2.90338E-03-5.62478E-04
 -1        39-4.59313E-05-3.43740E-03-4.13875E-04
 -1        40-4.55683E-05-3.81556E-03-2.30945E-04
 -1        41-4.56249E-05-3.85527E-03-7.74884E-05
 -1        42-7.96303E-05-4.06439E-03-1.75772E-04
 -1        43 7.72739E-05-3.71788E-03 1.12264E-04
 -1        44-6.74376E-05-3.68291E-03 4.82160E-04
 -1        51 6.73726E-05-3.68325E-03 4.82387E-04
 -1        52-7.76867E-05-3.71789E-03 1.12371E-04
 -1        53 7.91636E-05-4.06443E-03-1.75663E-04
 -1        54 4.50299E-05-3.85524E-03-7.74649E-05
 -1        55 4.50093E-05-3.81555E-03-2.30958E-04
 -1        56 4.54013E-05-3.43740E-03-4.13927E-04
 -1        57 2.27608E-05-2.90337E-03-5.62550E-04
 -1        58 5.15912E-06-2.27141E-03-5.91353E-04
 -1        59-9.21688E-06-1.64504E-03-5.83287E-04
 -1        60-2.78837E-05-1.04384E-03-5.21068E-04
 -1        61-3.38101E-05-5.18822E-04-4.03420E-04
 -1        62-6.87181E-05-1.67345E-04-2.20188E-04
 -1        63-6.72693E-05-1.65336E-04 2.16068E-04
 -1        64-3.35530E-05-5.18237E-04 3.94607E-04
 -1        65-2.52541E-05-1.04304E-03 5.08659E-04
 -1        66-9.14136E-06-1.65223E-03 5.66690E-04
 -1        67 5.63418E-06-2.26081E-03 5.70991E-04
 -1        68 1.63343E-05-2.90595E-03 5.32700E-04
 -1        69 6.16432E-05-3.44625E-03 3.81967E-04
 -1        70 6.76764E-05-3.91543E-03 1.99897E-04
 -1        71-3.14248E-06-3.72570E-03 4.02070E-05
 -1        72-9.11106E-05-3.78940E-03 9.65207E-05
 -1        73 1.87924E-04-4.14864E-03-2.09321E-04
 -1        74 2.98809E-04-4.67711E-03-5.41343E-04
 -1        78 6.72409E-05-1.65325E-04 2.16032E-04
 -1        79 3.34686E-05-5.18233E-04 3.94543E-04
 -1        80 2.50820E-05-1.04304E-03 5.08577E-04
 -1        81 8.87792E-06-1.65223E-03 5.66601E-04
 -1        82-6.00239E-06-2.26081E-03 5.70903E-04
 -1        83-1.67811E-05-2.90595E-03 5.32628E-04
 -1        84-6.21756E-05-3.44626E-03 3.81915E-04
 -1        85-6.82360E-05-3.91545E-03 1.99883E-04
 -1        86 2.54346E-06-3.72572E-03 4.02311E-05
 -1        87 9.06427E-05-3.78936E-03 9.66353E-05
 -1        88-1.88341E-04-4.14863E-03-2.09221E-04
 -1        89-2.98873E-04-4.67678E-03-5.41122E-04
 -1        93 0.00000E+00 0.00000E+00 0.00000E+00
 -1        94 0.00000E+00 0.00000E+00 0.00000E+00
 -1        95 0.00000E+00 0.00000E+00 0.00000E+00
 -1        96 0.00000E+00 0.00000E+00 0.00000E+00
 -1        97 0.00000E+00 0.00000E+00 0.00000E+00
 -1       103-1.06217E-08-1.95734E-04-2.16078E-04
 -1       104-1.70102E-05-5.39306E-04-4.09575E-04
 -1       105-4.27553E-08-5.41561E-04-4.12260E-04
 -1       106 1.69268E-05-5.39304E-04-4.09544E-04
 -1       107-8.33465E-08-1.05539E-03-5.24457E-04
 -1       108-3.31654E-06-1.64666E-03-5.87054E-04
 -1       109-1.34394E-07-1.65759E-03-5.85545E-04
 -1       110 3.05071E-06-1.64666E-03-5.87012E-04
 -1       111-1.81478E-07-2.26294E-03-5.94794E-04
 -1       112 5.97813E-06-2.92740E-03-5.63375E-04
 -1       113-2.31783E-07-2.91700E-03-5.64073E-04
 -1       114-6.43295E-06-2.92740E-03-5.63338E-04
 -1       115-2.63325E-07-3.40012E-03-4.28171E-04
 -1       116 4.22695E-05-3.79150E-03-2.22603E-04
 -1       117-2.97875E-07-3.92928E-03-1.96270E-04
 -1       118-4.28494E-05-3.79150E-03-2.22609E-04
 -1       119-2.84640E-07-3.82981E-03-7.38969E-05
 -1       120-2.93607E-05-4.22599E-03-1.29616E-04
 -1       121-2.89887E-07-4.04321E-03-1.30693E-04
 -1       122 2.88375E-05-4.22598E-03-1.29628E-04
 -1       123-1.97784E-07-3.77622E-03-5.87914E-05
 -1       124 2.63877E-04-3.19483E-03 4.60835E-04
 -1       125-1.87142E-07-3.92436E-03 4.84331E-04
 -1       126-2.64103E-04-3.19463E-03 4.60568E-04
 -1       132 8.27837E-07-1.27673E-04-1.92363E-06
 -1       133 1.73892E-05-5.04987E-04-1.91903E-04
 -1       134 9.97437E-07-5.09625E-04-3.48003E-06
 -1       135-1.65862E-05-5.05136E-04 1.83794E-04
 -1       136-2.10685E-07-1.02563E-03-6.60903E-06
 -1       137 5.27091E-06-1.64203E-03-2.90254E-04
 -1       138 5.32999E-07-1.63183E-03-8.62452E-06
 -1       139-4.15125E-06-1.64387E-03 2.74143E-04
 -1       140 1.64475E-06-2.28855E-03-1.10617E-05
 -1       141-1.16775E-05-2.88242E-03-2.64489E-04
 -1       142 6.01504E-06-2.88763E-03-6.68977E-06
 -1       143 1.21090E-05-2.89046E-03 2.40484E-04
 -1       144-9.97164E-06-3.46769E-03-1.50751E-05
 -1       145-2.11786E-05-3.83415E-03-1.48128E-04
 -1       146-1.51882E-05-3.71447E-03-2.82537E-05
 -1       147 1.87467E-05-3.85953E-03 1.10359E-04
 -1       148 2.93569E-05-3.97438E-03-2.79801E-05
 -1       149-4.61057E-05-3.66550E-03-5.54393E-05
 -1       150 9.55757E-05-3.68824E-03-6.00633E-06
 -1       151 3.68034E-05-3.60094E-03-6.38307E-07
 -1       152-1.39826E-04-4.03922E-03 8.78880E-06
 -1       153 8.95008E-05-3.91042E-03 2.01773E-04
 -1       154-1.43343E-04-2.54304E-03-2.57005E-05
 -1       155-7.07115E-05-4.15218E-03-2.58232E-04
 -1       161-1.07586E-08-1.94307E-04 2.11651E-04
 -1       162-1.66807E-05-5.38488E-04 4.01444E-04
 -1       163-4.30849E-08-5.38711E-04 4.03677E-04
 -1       164 1.65967E-05-5.38486E-04 4.01414E-04
 -1       165-8.37568E-08-1.05538E-03 5.12281E-04
 -1       166-4.15813E-06-1.64369E-03 5.70221E-04
 -1       167-1.35092E-07-1.65248E-03 5.72246E-04
 -1       168 3.89115E-06-1.64369E-03 5.70178E-04
 -1       169-1.82142E-07-2.26419E-03 5.70172E-04
 -1       170 6.56901E-06-2.92650E-03 5.38983E-04
 -1       171-2.32958E-07-2.88102E-03 5.33567E-04
 -1       172-7.02562E-06-2.92651E-03 5.38945E-04
 -1       173-2.64205E-07-3.42354E-03 3.98566E-04
 -1       174 3.84463E-05-3.72547E-03 1.83672E-04
 -1       175-2.99593E-07-3.82905E-03 1.81023E-04
 -1       176-3.90284E-05-3.72547E-03 1.83678E-04
 -1       177-2.85545E-07-3.78324E-03 1.98750E-05
 -1       178-6.13068E-05-4.32836E-03 7.83243E-05
 -1       179-2.93183E-07-3.83883E-03 4.96387E-05
 -1       180 6.07797E-05-4.32836E-03 7.83376E-05
 -1       181-1.99097E-07-3.99753E-03-3.39519E-05
 -1       182 1.84366E-04-2.76731E-03-5.10557E-04
 -1       183-1.94249E-07-4.75185E-03-5.20090E-04
 -1       184-1.84598E-04-2.76712E-03-5.10286E-04
 -1       190-8.60251E-07-1.27673E-04-1.95862E-06
 -1       191 1.64977E-05-5.05133E-04 1.83729E-04
 -1       192-1.08730E-06-5.09626E-04-3.54616E-06
 -1       193-1.74774E-05-5.04989E-04-1.91968E-04
 -1       194 3.89787E-08-1.02563E-03-6.69106E-06
 -1       195 3.88499E-06-1.64387E-03 2.74052E-04
 -1       196-8.02783E-07-1.63183E-03-8.71471E-06
 -1       197-5.53669E-06-1.64203E-03-2.90345E-04
 -1       198-2.00551E-06-2.28856E-03-1.11497E-05
 -1       199-1.25626E-05-2.89046E-03 2.40411E-04
 -1       200-6.47477E-06-2.88763E-03-6.76977E-06
 -1       201 1.12244E-05-2.88242E-03-2.64562E-04
 -1       202 9.45176E-06-3.46769E-03-1.51211E-05
 -1       203-1.93171E-05-3.85954E-03 1.10335E-04
 -1       204 1.45991E-05-3.71447E-03-2.82660E-05
 -1       205 2.06089E-05-3.83414E-03-1.48153E-04
 -1       206-2.99076E-05-3.97438E-03-2.79654E-05
 -1       207-3.73284E-05-3.60091E-03-5.40772E-07
 -1       208-9.61496E-05-3.68824E-03-6.01071E-06
 -1       209 4.55804E-05-3.66553E-03-5.53415E-05
 -1       210 1.39420E-04-4.03922E-03 9.01631E-06
 -1       211 7.04490E-05-4.15202E-03-2.58129E-04
 -1       212 1.42884E-04-2.54304E-03-2.54673E-05
 -1       213-8.97610E-05-3.91057E-03 2.01866E-04
 -1       219-1.31007E-08-1.55274E-04-1.72689E-06
 -1       220-4.37212E-08-5.26459E-04-1.98024E-04
 -1       221-5.27762E-07-5.27908E-04-4.36597E-06
 -1       222-4.34054E-08-5.29895E-04-4.57274E-06
 -1       223 4.40720E-07-5.27908E-04-4.33464E-06
 -1       224-4.38859E-08-5.24854E-04 1.89644E-04
 -1       225-8.52987E-08-1.03801E-03-6.14110E-06
 -1       226-1.33119E-07-1.65016E-03-2.94300E-04
 -1       227-6.07096E-07-1.63467E-03-8.31620E-06
 -1       228-1.31895E-07-1.63779E-03-1.00617E-05
 -1       229 3.40528E-07-1.63467E-03-8.27197E-06
 -1       230-1.33469E-07-1.64811E-03 2.76117E-04
 -1       231-1.83403E-07-2.28546E-03-9.07460E-06
 -1       232-2.27388E-07-2.89479E-03-2.70328E-04
 -1       233-2.62424E-06-2.88751E-03-1.51101E-05
 -1       234-2.23694E-07-2.88871E-03-1.68878E-05
 -1       235 2.16923E-06-2.88751E-03-1.50733E-05
 -1       236-2.27968E-07-2.87473E-03 2.43481E-04
 -1       237-2.66635E-07-3.43238E-03-1.11081E-05
 -1       238-2.87071E-07-3.89144E-03-1.33065E-04
 -1       239 5.86425E-06-3.71595E-03-1.75143E-05
 -1       240-2.76964E-07-3.75093E-03-2.32900E-05
 -1       241-6.43486E-06-3.71595E-03-1.75018E-05
 -1       242-2.87950E-07-3.84635E-03 9.05793E-05
 -1       243-2.96986E-07-3.93388E-03-2.60205E-05
 -1       244-2.64967E-07-3.82092E-03-2.73175E-05
 -1       245-3.53721E-05-3.89009E-03-3.07338E-05
 -1       246-2.45868E-07-3.97478E-03-2.46270E-05
 -1       247 3.48308E-05-3.89009E-03-3.07661E-05
 -1       248-2.66580E-07-3.72225E-03-9.60565E-06
 -1       249-2.33144E-07-3.76727E-03-1.53098E-05
 -1       250-1.62668E-07-4.41874E-03 1.90637E-04
 -1       251 2.50130E-05-2.76990E-03-1.10616E-05
 -1       252-1.16064E-07-3.46463E-03-8.39651E-06
 -1       253-2.53544E-05-2.76990E-03-1.10564E-05
 -1       254-1.66633E-07-4.80406E-03-2.84177E-04
 -3
    1PSTEP                         2           2           1          
  100CL  102 8.00000E-03         201                     1    2           1
 -4  DISP        4    1
 -5  D1          1    2    1    0
 -5  D2          1    2    2    0
 -5  D3          1    2    3    0
 -5  ALL         1    2    0    0    1ALL
 -1         1 0.00000E+00 0.00000E+00 0.00000E+00
 -1         2 0.00000E+00 0.00000E+00 0.00000E+00
 -1         3 0.00000E+00 0.00000E+00 0.00000E+00
 -1         4 0.00000E+00 0.00000E+00 0.00000E+00
 -1         9 0.00000E+00 0.00000E+00 0.00000E+00
 -1        10 0.00000E+00 0.00000E+00 0.00000E+00
 -1        11 0.00000E+00 0.00000E+00 0.00000E+00
 -1        12 0.00000E+00 0.00000E+00 0.00000E+00
 -1        13 0.00000E+00 0.00000E+00 0.00000E+00
 -1        14 0.00000E+00 0.00000E+00 0.00000E+00
 -1        15 0.00000E+00 0.00000E+00 0.00000E+00
 -1        16 0.00000E+00 0.00000E+00 0.00000E+00
 -1        17 0.00000E+00 0.00000E+00 0.00000E+00
 -1        18 0.00000E+00 0.00000E+00 0.00000E+00
 -1        19 0.00000E+00 0.00000E+00 0.00000E+00
 -1        20 0.00000E+00 0.00000E+00 0.00000E+00
 -1        33-2.23160E-05 5.60380E-05 7.21893E-05
 -1        34-1.06394E-05 1.73116E-04 1.30980E-04
 -1        35-8.70912E-06 3.47790E-04 1.69344E-04
 -1        36-3.39302E-06 5.45995E-04 1.87492E-04
 -1        37 4.15926E-06 7.56721E-04 1.87542E-04
 -1        38 1.13411E-05 9.65793E-04 1.67405E-04
 -1        39 1.49144E-05 1.12730E-03 1.23427E-04
 -1        40 5.55512E-06 1.24985E-03 5.51754E-05
 -1        41 3.05112E-05 1.27939E-03 6.13142E-06
 -1        42 3.55309E-05 1.29799E-03-3.71226E-05
 -1        43-1.80690E-05 1.16472E-03-8.07131E-05
 -1        44-2.10553E-04 1.05012E-03-1.69801E-04
 -1        51 2.11245E-04 1.04912E-03-1.69598E-04
 -1        52 1.87021E-05 1.16453E-03-8.05173E-05
 -1        53-3.54731E-05 1.29796E-03-3.74213E-05
 -1        54-3.02023E-05 1.27948E-03 6.12682E-06
 -1        55-5.35550E-06 1.24981E-03 5.52582E-05
 -1        56-1.46627E-05 1.12729E-03 1.23481E-04
 -1        57-1.12056E-05 9.65795E-04 1.67424E-04
 -1        58-4.02026E-06 7.56731E-04 1.87581E-04
 -1        59 3.47102E-06 5.45996E-04 1.87531E-04
 -1        60 8.76935E-06 3.47793E-04 1.69376E-04
 -1        61 1.06608E-05 1.73119E-04 1.31000E-04
 -1        62 2.23249E-05 5.60429E-05 7.22016E-05
 -1        63 2.27315E-05 5.66687E-05-7.34151E-05
 -1        64 1.07162E-05 1.73319E-04-1.33608E-04
 -1        65 9.65890E-06 3.47891E-04-1.73019E-04
 -1        66 3.58238E-06 5.43602E-04-1.92370E-04
 -1        67-4.34569E-06 7.60509E-04-1.93557E-04
 -1        68-1.38328E-05 9.65970E-04-1.76373E-04
 -1        69-7.65618E-06 1.12213E-03-1.32908E-04
 -1        70 4.44888E-06 1.21509E-03-6.40511E-05
 -1        71-5.35638E-05 1.32920E-03-1.68265E-05
 -1        72-1.03454E-04 1.40151E-03 1.25568E-05
 -1        73 1.38548E-04 9.89502E-04 5.06416E-05
 -1        74 3.45044E-04 6.63183E-04 1.53231E-04
 -1        78-2.27216E-05 5.66649E-05-7.34028E-05