    1C
    1UUSER                                                              
    1UDATE              12.july.2018                                    
    1UTIME              16:57:15                                        
    1UHOST                                                              
    1UPGM               CalculiX                                        
    1UVERSION           Version 2.13                             
    1UCOMPILETIME       jue jun 14 00:40:39 CEST 2018                    
    1UDIR                                                               
    1UDBN                                                               
    1UMAT    1EL                                                        
    2C                           201                                     1
 -1         1 0.00000E+00 0.00000E+00 0.00000E+00
 -1         2 1.00000E+00 0.00000E+00 0.00000E+00
 -1         3 1.00000E+00 1.00000E+00 0.00000E+00
 -1         4 0.00000E+00 1.00000E+00 0.00000E+00
 -1         9 2.50000E-01 0.00000E+00 0.00000E+00
 -1        10 5.00000E-01 0.00000E+00 0.00000E+00
 -1        11 7.50000E-01 0.00000E+00 0.00000E+00
 -1        12 1.00000E+00 2.50000E-01 0.00000E+00
 -1        13 1.00000E+00 5.00000E-01 0.00000E+00
 -1        14 1.00000E+00 7.50000E-01 0.00000E+00
 -1        15 7.50000E-01 1.00000E+00 0.00000E+00
 -1        16 5.00000E-01 1.00000E+00 0.00000E+00
 -1        17 2.50000E-01 1.00000E+00 0.00000E+00
 -1        18 0.00000E+00 7.50000E-01 0.00000E+00
 -1        19 0.00000E+00 5.00000E-01 0.00000E+00
 -1        20 0.00000E+00 2.50000E-01 0.00000E+00
 -1        33 1.00000E+00 0.00000E+00 5.00000E-01
 -1        34 1.00000E+00 0.00000E+00 1.00000E+00
 -1        35 1.00000E+00 0.00000E+00 1.50000E+00
 -1        36 1.00000E+00 0.00000E+00 2.00000E+00
 -1        37 1.00000E+00 0.00000E+00 2.50000E+00
 -1        38 1.00000E+00 0.00000E+00 3.00000E+00
 -1        39 1.00000E+00 0.00000E+00 3.50000E+00
 -1        40 1.00000E+00 0.00000E+00 4.00000E+00
 -1        41 1.00000E+00 0.00000E+00 4.50000E+00
 -1        42 1.00000E+00 0.00000E+00 5.00000E+00
 -1        43 1.00000E+00 0.00000E+00 5.50000E+00
 -1        44 1.00000E+00 0.00000E+00 6.00000E+00
 -1        51 0.00000E+00 0.00000E+00 6.00000E+00
 -1        52 0.00000E+00 0.00000E+00 5.50000E+00
 -1        53 0.00000E+00 0.00000E+00 5.00000E+00
 -1        54 0.00000E+00 0.00000E+00 4.50000E+00
 -1        55 0.00000E+00 0.00000E+00 4.00000E+00
 -1        56 0.00000E+00 0.00000E+00 3.50000E+00
 -1        57 0.00000E+00 0.00000E+00 3.00000E+00
 -1        58 0.00000E+00 0.00000E+00 2.50000E+00
 -1        59 0.00000E+00 0.00000E+00 2.00000E+00
 -1        60 0.00000E+00 0.00000E+00 1.50000E+00
 -1        61 0.00000E+00 0.00000E+00 1.00000E+00
 -1        62 0.00000E+00 0.00000E+00 5.00000E-01
 -1        63 1.00000E+00 1.00000E+00 5.00000E-01
 -1        64 1.00000E+00 1.00000E+00 1.00000E+00
 -1        65 1.00000E+00 1.00000E+00 1.50000E+00
 -1        66 1.00000E+00 1.00000E+00 2.00000E+00
 -1        67 1.00000E+00 1.00000E+00 2.50000E+00
 -1        68 1.00000E+00 1.00000E+00 3.00000E+00
 -1        69 1.00000E+00 1.00000E+00 3.50000E+00
 -1        70 1.00000E+00 1.00000E+00 4.00000E+00
 -1        71 1.00000E+00 1.00000E+00 4.50000E+00
 -1        72 1.00000E+00 1.00000E+00 5.00000E+00
 -1        73 1.00000E+00 1.00000E+00 5.50000E+00
 -1        74 1.00000E+00 1.00000E+00 6.00000E+00
 -1        78 0.00000E+00 1.00000E+00 5.00000E-01
 -1        79 0.00000E+00 1.00000E+00 1.00000E+00
 -1        80 0.00000E+00 1.00000E+00 1.50000E+00
 -1        81 0.00000E+00 1.00000E+00 2.00000E+00
 -1        82 0.00000E+00 1.00000E+00 2.50000E+00
 -1        83 0.00000E+00 1.00000E+00 3.00000E+00
 -1        84 0.00000E+00 1.00000E+00 3.50000E+00
 -1        85 0.00000E+00 1.00000E+00 4.00000E+00
 -1        86 0.00000E+00 1.00000E+00 4.50000E+00
 -1        87 0.00000E+00 1.00000E+00 5.00000E+00
 -1        88 0.00000E+00 1.00000E+00 5.50000E+00
 -1        89 0.00000E+00 1.00000E+00 6.00000E+00
 -1        93 5.00000E-01 2.50000E-01 0.00000E+00
 -1        94 2.50000E-01 5.00000E-01 0.00000E+00
 -1        95 5.00000E-01 5.00000E-01 0.00000E+00
 -1        96 7.50000E-01 5.00000E-01 0.00000E+00
 -1        97 5.00000E-01 7.50000E-01 0.00000E+00
 -1       103 5.00000E-01 0.00000E+00 5.00000E-01
 -1       104 2.50000E-01 0.00000E+00 1.00000E+00
 -1       105 5.00000E-01 0.00000E+00 1.00000E+00
 -1       106 7.50000E-01 0.00000E+00 1.00000E+00
 -1       107 5.00000E-01 0.00000E+00 1.50000E+00
 -1       108 2.50000E-01 0.00000E+00 2.00000E+00
 -1       109 5.00000E-01 0.00000E+00 2.00000E+00
 -1       110 7.50000E-01 0.00000E+00 2.00000E+00
 -1       111 5.00000E-01 0.00000E+00 2.50000E+00
 -1       112 2.50000E-01 0.00000E+00 3.00000E+00
 -1       113 5.00000E-01 0.00000E+00 3.00000E+00
 -1       114 7.50000E-01 0.00000E+00 3.00000E+00
 -1       115 5.00000E-01 0.00000E+00 3.50000E+00
 -1       116 2.50000E-01 0.00000E+00 4.00000E+00
 -1       117 5.00000E-01 0.00000E+00 4.00000E+00
 -1       118 7.50000E-01 0.00000E+00 4.00000E+00
 -1       119 5.00000E-01 0.00000E+00 4.50000E+00
 -1       120 2.50000E-01 0.00000E+00 5.00000E+00
 -1       121 5.00000E-01 0.00000E+00 5.00000E+00
 -1       122 7.50000E-01 0.00000E+00 5.00000E+00
 -1       123 5.00000E-01 0.00000E+00 5.50000E+00
 -1       124 2.50000E-01 0.00000E+00 6.00000E+00
 -1       125 5.00000E-01 0.00000E+00 6.00000E+00
 -1       126 7.50000E-01 0.00000E+00 6.00000E+00
 -1       132 1.00000E+00 5.00000E-01 5.00000E-01
 -1       133 1.00000E+00 2.50000E-01 1.00000E+00
 -1       134 1.00000E+00 5.00000E-01 1.00000E+00
 -1       135 1.00000E+00 7.50000E-01 1.00000E+00
 -1       136 1.00000E+00 5.00000E-01 1.50000E+00
 -1       137 1.00000E+00 2.50000E-01 2.00000E+00
 -1       138 1.00000E+00 5.00000E-01 2.00000E+00
 -1       139 1.00000E+00 7.50000E-01 2.00000E+00
 -1       140 1.00000E+00 5.00000E-01 2.50000E+00
 -1       141 1.00000E+00 2.50000E-01 3.00000E+00
 -1       142 1.00000E+00 5.00000E-01 3.00000E+00
 -1       143 1.00000E+00 7.50000E-01 3.00000E+00
 -1       144 1.00000E+00 5.00000E-01 3.50000E+00
 -1       145 1.00000E+00 2.50000E-01 4.00000E+00
 -1       146 1.00000E+00 5.00000E-01 4.00000E+00
 -1       147 1.00000E+00 7.50000E-01 4.00000E+00
 -1       148 1.00000E+00 5.00000E-01 4.50000E+00
 -1       149 1.00000E+00 2.50000E-01 5.00000E+00
 -1       150 1.00000E+00 5.00000E-01 5.00000E+00
 -1       151 1.00000E+00 7.50000E-01 5.00000E+00
 -1       152 1.00000E+00 5.00000E-01 5.50000E+00
 -1       153 1.00000E+00 2.50000E-01 6.00000E+00
 -1       154 1.00000E+00 5.00000E-01 6.00000E+00
 -1       155 1.00000E+00 7.50000E-01 6.00000E+00
 -1       161 5.00000E-01 1.00000E+00 5.00000E-01
 -1       162 7.50000E-01 1.00000E+00 1.00000E+00
 -1       163 5.00000E-01 1.00000E+00 1.00000E+00
 -1       164 2.50000E-01 1.00000E+00 1.00000E+00
 -1       165 5.00000E-01 1.00000E+00 1.50000E+00
 -1       166 7.50000E-01 1.00000E+00 2.00000E+00
 -1       167 5.00000E-01 1.00000E+00 2.00000E+00
 -1       168 2.50000E-01 1.00000E+00 2.00000E+00
 -1       169 5.00000E-01 1.00000E+00 2.50000E+00
 -1       170 7.50000E-01 1.00000E+00 3.00000E+00
 -1       171 5.00000E-01 1.00000E+00 3.00000E+00
 -1       172 2.50000E-01 1.00000E+00 3.00000E+00
 -1       173 5.00000E-01 1.00000E+00 3.50000E+00
 -1       174 7.50000E-01 1.00000E+00 4.00000E+00
 -1       175 5.00000E-01 1.00000E+00 4.00000E+00
 -1       176 2.50000E-01 1.00000E+00 4.00000E+00
 -1       177 5.00000E-01 1.00000E+00 4.50000E+00
 -1       178 7.50000E-01 1.00000E+00 5.00000E+00
 -1       179 5.00000E-01 1.00000E+00 5.00000E+00
 -1       180 2.50000E-01 1.00000E+00 5.00000E+00
 -1       181 5.00000E-01 1.00000E+00 5.50000E+00
 -1       182 7.50000E-01 1.00000E+00 6.00000E+00
 -1       183 5.00000E-01 1.00000E+00 6.00000E+00
 -1       184 2.50000E-01 1.00000E+00 6.00000E+00
 -1       190 0.00000E+00 5.00000E-01 5.00000E-01
 -1       191 0.00000E+00 7.50000E-01 1.00000E+00
 -1       192 0.00000E+00 5.00000E-01 1.00000E+00
 -1       193 0.00000E+00 2.50000E-01 1.00000E+00
 -1       194 0.00000E+00 5.00000E-01 1.50000E+00
 -1       195 0.00000E+00 7.50000E-01 2.00000E+00
 -1       196 0.00000E+00 5.00000E-01 2.00000E+00
 -1       197 0.00000E+00 2.50000E-01 2.00000E+00
 -1       198 0.00000E+00 5.00000E-01 2.50000E+00
 -1       199 0.00000E+00 7.50000E-01 3.00000E+00
 -1       200 0.00000E+00 5.00000E-01 3.00000E+00
 -1       201 0.00000E+00 2.50000E-01 3.00000E+00
 -1       202 0.00000E+00 5.00000E-01 3.50000E+00
 -1       203 0.00000E+00 7.50000E-01 4.00000E+00
 -1       204 0.00000E+00 5.00000E-01 4.00000E+00
 -1       205 0.00000E+00 2.50000E-01 4.00000E+00
 -1       206 0.00000E+00 5.00000E-01 4.50000E+00
 -1       207 0.00000E+00 7.50000E-01 5.00000E+00
 -1       208 0.00000E+00 5.00000E-01 5.00000E+00
 -1       209 0.00000E+00 2.50000E-01 5.00000E+00
 -1       210 0.00000E+00 5.00000E-01 5.50000E+00
 -1       211 0.00000E+00 7.50000E-01 6.00000E+00
 -1       212 0.00000E+00 5.00000E-01 6.00000E+00
 -1       213 0.00000E+00 2.50000E-01 6.00000E+00
 -1       219 5.00000E-01 5.00000E-01 5.00000E-01
 -1       220 5.00000E-01 2.50000E-01 1.00000E+00
 -1       221 2.50000E-01 5.00000E-01 1.00000E+00
 -1       222 5.00000E-01 5.00000E-01 1.00000E+00
 -1       223 7.50000E-01 5.00000E-01 1.00000E+00
 -1       224 5.00000E-01 7.50000E-01 1.00000E+00
 -1       225 5.00000E-01 5.00000E-01 1.50000E+00
 -1       226 5.00000E-01 2.50000E-01 2.00000E+00
 -1       227 2.50000E-01 5.00000E-01 2.00000E+00
 -1       228 5.00000E-01 5.00000E-01 2.00000E+00
 -1       229 7.50000E-01 5.00000E-01 2.00000E+00
 -1       230 5.00000E-01 7.50000E-01 2.00000E+00
 -1       231 5.00000E-01 5.00000E-01 2.50000E+00
 -1       232 5.00000E-01 2.50000E-01 3.00000E+00
 -1       233 2.50000E-01 5.00000E-01 3.00000E+00
 -1       234 5.00000E-01 5.00000E-01 3.00000E+00
 -1       235 7.50000E-01 5.00000E-01 3.00000E+00
 -1       236 5.00000E-01 7.50000E-01 3.00000E+00
 -1       237 5.00000E-01 5.00000E-01 3.50000E+00
 -1       238 5.00000E-01 2.50000E-01 4.00000E+00
 -1       239 2.50000E-01 5.00000E-01 4.00000E+00
 -1       240 5.00000E-01 5.00000E-01 4.00000E+00
 -1       241 7.50000E-01 5.00000E-01 4.00000E+00
 -1       242 5.00000E-01 7.50000E-01 4.00000E+00
 -1       243 5.00000E-01 5.00000E-01 4.50000E+00
 -1       244 5.00000E-01 2.50000E-01 5.00000E+00
 -1       245 2.50000E-01 5.00000E-01 5.00000E+00
 -1       246 5.00000E-01 5.00000E-01 5.00000E+00
 -1       247 7.50000E-01 5.00000E-01 5.00000E+00
 -1       248 5.00000E-01 7.50000E-01 5.00000E+00
 -1       249 5.00000E-01 5.00000E-01 5.50000E+00
 -1       250 5.00000E-01 2.50000E-01 6.00000E+00
 -1       251 2.50000E-01 5.00000E-01 6.00000E+00
 -1       252 5.00000E-01 5.00000E-01 6.00000E+00
 -1       253 7.50000E-01 5.00000E-01 6.00000E+00
 -1       254 5.00000E-01 7.50000E-01 6.00000E+00
 -3
    3C                            24                                     1
 -1         1    4    0    1
 -2         1        10        95        19        61       105       222       192         9        93
 -2        94        20        62       103       219       190       104       220       221       193
 -1         2    4    0    1
 -2        10         2        13        95       105        34       134       222        11        12
 -2        96        93       103        33       132       219       106       133       223       220
 -1         3    4    0    1
 -2        19        95        16         4       192       222       163        79        94        97
 -2        17        18       190       219       161        78       221       224       164       191
 -1         4    4    0    1
 -2        95        13         3        16       222       134        64       163        96        14
 -2        15        97       219       132        63       161       223       135       162       224
 -1         5    4    0    1
 -2        61       105       222       192        59       109       228       196       104       220
 -2       221       193        60       107       225       194       108       226       227       197
 -1         6    4    0    1
 -2       105        34       134       222       109        36       138       228       106       133
 -2       223       220       107        35       136       225       110       137       229       226
 -1         7    4    0    1
 -2       192       222       163        79       196       228       167        81       221       224
 -2       164       191       194       225       165        80       227       230       168       195
 -1         8    4    0    1
 -2       222       134        64       163       228       138        66       167       223       135
 -2       162       224       225       136        65       165       229       139       166       230
 -1         9    4    0    1
 -2        59       109       228       196        57       113       234       200       108       226
 -2       227       197        58       111       231       198       112       232       233       201
 -1        10    4    0    1
 -2       109        36       138       228       113        38       142       234       110       137
 -2       229       226       111        37       140       231       114       141       235       232
 -1        11    4    0    1
 -2       196       228       167        81       200       234       171        83       227       230
 -2       168       195       198       231       169        82       233       236       172       199
 -1        12    4    0    1
 -2       228       138        66       167       234       142        68       171       229       139
 -2       166       230       231       140        67       169       235       143       170       236
 -1        13    4    0    1
 -2        57       113       234       200        55       117       240       204       112       232
 -2       233       201        56       115       237       202       116       238       239       205
 -1        14    4    0    1
 -2       113        38       142       234       117        40       146       240       114       141
 -2       235       232       115        39       144       237       118       145       241       238
 -1        15    4    0    1
 -2       200       234       171        83       204       240       175        85       233       236
 -2       172       199       202       237       173        84       239       242       176       203
 -1        16    4    0    1
 -2       234       142        68       171       240       146        70       175       235       143
 -2       170       236       237       144        69       173       241       147       174       242
 -1        17    4    0    1
 -2        55       117       240       204        53       121       246       208       116       238
 -2       239       205        54       119       243       206       120       244       245       209
 -1        18    4    0    1
 -2       117        40       146       240       121        42       150       246       118       145
 -2       241       238       119        41       148       243       122       149       247       244
 -1        19    4    0    1
 -2       204       240       175        85       208       246       179        87       239       242
 -2       176       203       206       243       177        86       245       248       180       207
 -1        20    4    0    1
 -2       240       146        70       175       246       150        72       179       241       147
 -2       174       242       243       148        71       177       247       151       178       248
 -1        21    4    0    1
 -2        53       121       246       208        51       125       252       212       120       244
 -2       245       209        52       123       249       210       124       250       251       213
 -1        22    4    0    1
 -2       121        42       150       246       125        44       154       252       122       149
 -2       247       244       123        43       152       249       126       153       253       250
 -1        23    4    0    1
 -2       208       246       179        87       212       252       183        89       245       248
 -2       180       207       210       249       181        88       251       254       184       211
 -1        24    4    0    1
 -2       246       150        72       179       252       154        74       183       247       151
 -2       178       248       249       152        73       181       253       155       182       254
 -3
    1PSTEP                         1           1           1          
  100CL  101 4.00000E-03         201                     1    1           1
 -4  DISP        4    1
 -5  D1          1    2    1    0
 -5  D2          1    2    2    0
 -5  D3          1    2    3    0
 -5  ALL         1    2    0    0    1ALL
 -1         1 0.00000E+00 0.00000E+00 0.00000E+00
 -1         2 0.00000E+00 0.00000E+00 0.00000E+00
 -1         3 0.00000E+00 0.00000E+00 0.00000E+00
 -1         4 0.00000E+00 0.00000E+00 0.00000E+00
 -1         9 0.00000E+00 0.00000E+00 0.00000E+00
 -1        10 0.00000E+00 0.00000E+00 0.00000E+00
 -1        11 0.00000E+00 0.00000E+00 0.00000E+00
 -1        12 0.00000E+00 0.00000E+00 0.00000E+00
 -1        13 0.00000E+00 0.00000E+00 0.00000E+00
 -1        14 0.00000E+00 0.00000E+00 0.00000E+00
 -1        15 0.00000E+00 0.00000E+00 0.00000E+00
 -1        16 0.00000E+00 0.00000E+00 0.00000E+00
 -1        17 0.00000E+00 0.00000E+00 0.00000E+00
 -1        18 0.00000E+00 0.00000E+00 0.00000E+00
 -1        19 0.00000E+00 0.00000E+00 0.00000E+00
 -1        20 0.00000E+00 0.00000E+00 0.00000E+00
 -1        33 6.23010E-05-1.52992E-04-1.99834E-04
 -1        34 2.99420E-05-4.68393E-04-3.64275E-04
 -1        35 2.52505E-05-9.48076E-04-4.71746E-04
 -1        36 7.57733E-06-1.48088E-03-5.24192E-04
 -1        37-6.24123E-06-2.05980E-03-5.30136E-04
 -1        38-2.29530E-05-2.60080E-03-4.93144E-04
 -1        39-3.95109E-05-3.09743E-03-3.71581E-04
 -1        40-2.36217E-05-3.37145E-03-1.83321E-04
 -1        41-6.80663E-05-3.48750E-03-5.45536E-05
 -1        42-6.03353E-05-3.58758E-03-8.75467E-05
 -1        43 6.12240E-05-3.22727E-03 1.95612E-05
 -1        44 9.21918E-05-3.21575E-03 3.68090E-04
 -1        51-9.19023E-05-3.21546E-03 3.67610E-04
 -1        52-6.12223E-05-3.22727E-03 1.94799E-05
 -1        53 6.04078E-05-3.58751E-03-8.75060E-05
 -1        54 6.80425E-05-3.48753E-03-5.45459E-05
 -1        55 2.36532E-05-3.37142E-03-1.83319E-04
 -1        56 3.95044E-05-3.09744E-03-3.71587E-04
 -1        57 2.29651E-05-2.60079E-03-4.93138E-04
 -1        58 6.23779E-06-2.05981E-03-5.30137E-04
 -1        59-7.57200E-06-1.48087E-03-5.24190E-04
 -1        60-2.52516E-05-9.48077E-04-4.71747E-04
 -1        61-2.99402E-05-4.68391E-04-3.64274E-04
 -1        62-6.23014E-05-1.52993E-04-1.99834E-04
 -1        63-6.07493E-05-1.51421E-04 1.95870E-04
 -1        64-2.94419E-05-4.68430E-04 3.55945E-04
 -1        65-2.34068E-05-9.46058E-04 4.59587E-04
 -1        66-7.95278E-06-1.48479E-03 5.07341E-04
 -1        67 9.02142E-06-2.05459E-03 5.10155E-04
 -1        68 2.26107E-05-2.61460E-03 4.66677E-04
 -1        69 4.40629E-05-3.08755E-03 3.40931E-04
 -1        70 3.48511E-05-3.42153E-03 1.47569E-04
 -1        71 5.55097E-05-3.43537E-03 1.16170E-05
 -1        72 1.44257E-06-3.50214E-03 3.05924E-05
 -1        73 3.50597E-05-3.37693E-03-8.56804E-05
 -1        74-1.87170E-05-3.55251E-03-4.24969E-04
 -1        78 6.07496E-05-1.51422E-04 1.95870E-04
 -1        79 2.94402E-05-4.68429E-04 3.55944E-04
 -1        80 2.34081E-05-9.46059E-04 4.59587E-04
 -1        81 7.94777E-06-1.48478E-03 5.07340E-04
 -1        82-9.01757E-06-2.05460E-03 5.10156E-04
 -1        83-2.26222E-05-2.61459E-03 4.66671E-04
 -1        84-4.40557E-05-3.08756E-03 3.40937E-04
 -1        85-3.48818E-05-3.42150E-03 1.47566E-04
 -1        86-5.54852E-05-3.43539E-03 1.16094E-05
 -1        87-1.51430E-06-3.50207E-03 3.05517E-05
 -1        88-3.50604E-05-3.37693E-03-8.55991E-05
 -1        89 1.84286E-05-3.55222E-03-4.24489E-04
 -1        93 0.00000E+00 0.00000E+00 0.00000E+00
 -1        94 0.00000E+00 0.00000E+00 0.00000E+00
 -1        95 0.00000E+00 0.00000E+00 0.00000E+00
 -1        96 0.00000E+00 0.00000E+00 0.00000E+00
 -1        97 0.00000E+00 0.00000E+00 0.00000E+00
 -1       103 1.25500E-10-1.77528E-04-1.95788E-04
 -1       104-1.47740E-05-4.89034E-04-3.70639E-04
 -1       105-7.21856E-10-4.93603E-04-3.73567E-04
 -1       106 1.47742E-05-4.89035E-04-3.70639E-04
 -1       107 7.20797E-10-9.54872E-04-4.73380E-04
 -1       108-3.67363E-06-1.49031E-03-5.29318E-04
 -1       109-1.93178E-09-1.50672E-03-5.30389E-04
 -1       110 3.67408E-06-1.49031E-03-5.29319E-04
 -1       111 1.62550E-09-2.04013E-03-5.33546E-04
 -1       112 1.07572E-05-2.63334E-03-4.99385E-04
 -1       113-5.44686E-09-2.64118E-03-5.03397E-04
 -1       114-1.07556E-05-2.63335E-03-4.99387E-04
 -1       115 4.34585E-09-3.04709E-03-3.67497E-04
 -1       116 1.50389E-05-3.40306E-03-1.92253E-04
 -1       117-1.10281E-08-3.55724E-03-1.90870E-04
 -1       118-1.50375E-05-3.40308E-03-1.92259E-04
 -1       119 9.18842E-09-3.39638E-03-5.68459E-05
 -1       120 2.27934E-05-3.67292E-03-8.28425E-05
 -1       121-2.93537E-08-3.56522E-03-1.10597E-04
 -1       122-2.27753E-05-3.67296E-03-8.28383E-05
 -1       123 4.01885E-08-3.31350E-03 8.11854E-05
 -1       124-8.79656E-06-2.88478E-03 3.41385E-04
 -1       125 4.56462E-08-3.21995E-03 3.87324E-04
 -1       126 8.96295E-06-2.88495E-03 3.41559E-04
 -1       132 6.95764E-07-1.15935E-04-1.95477E-06
 -1       133 1.56269E-05-4.58696E-04-1.73542E-04
 -1       134 7.63050E-07-4.65530E-04-3.62888E-06
 -1       135-1.46876E-05-4.58907E-04 1.65667E-04
 -1       136 3.33847E-07-9.27715E-04-6.37177E-06
 -1       137 3.83831E-06-1.48629E-03-2.60472E-04
 -1       138 1.29436E-06-1.48567E-03-7.91259E-06
 -1       139-2.69527E-06-1.48749E-03 2.44341E-04
 -1       140 3.86279E-07-2.06344E-03-1.08817E-05
 -1       141-9.01442E-06-2.60253E-03-2.33863E-04
 -1       142 2.01218E-06-2.62490E-03-8.45752E-06
 -1       143 1.04778E-05-2.61247E-03 2.11310E-04
 -1       144-3.28632E-06-3.10094E-03-1.49327E-05
 -1       145-2.36939E-05-3.43996E-03-1.17054E-04
 -1       146-6.73150E-06-3.39406E-03-2.39042E-05
 -1       147 1.95290E-05-3.45411E-03 7.75166E-05
 -1       148 1.16301E-05-3.50292E-03-2.18065E-05
 -1       149 6.64764E-06-3.35095E-03-2.76149E-05
 -1       150 3.16377E-05-3.45111E-03-1.37713E-05
 -1       151-1.35613E-05-3.33198E-03-1.95156E-05
 -1       152-5.00933E-05-3.39020E-03-2.23993E-05
 -1       153-6.64306E-05-3.75428E-03 1.60908E-04
 -1       154-4.60906E-05-3.03131E-03-2.37399E-05
 -1       155 7.82722E-05-3.84293E-03-2.08921E-04
 -1       161-1.15387E-10-1.76358E-04 1.91665E-04
 -1       162-1.44583E-05-4.87930E-04 3.62538E-04
 -1       163 7.65966E-10-4.91376E-04 3.65473E-04
 -1       164 1.44582E-05-4.87929E-04 3.62537E-04
 -1       165-6.27415E-10-9.54148E-04 4.61165E-04
 -1       166-4.14348E-06-1.48859E-03 5.13408E-04
 -1       167 2.08165E-09-1.49965E-03 5.16193E-04
 -1       168 4.14334E-06-1.48859E-03 5.13407E-04
 -1       169-1.40830E-09-2.04390E-03 5.10502E-04
 -1       170 1.20339E-05-2.62724E-03 4.73930E-04
 -1       171 5.72748E-09-2.61434E-03 4.75785E-04
 -1       172-1.20349E-05-2.62723E-03 4.73928E-04
 -1       173-4.00837E-09-3.05975E-03 3.37867E-04
 -1       174 1.46535E-05-3.35603E-03 1.56927E-04
 -1       175 1.14182E-08-3.42488E-03 1.66278E-04
 -1       176-1.46541E-05-3.35602E-03 1.56921E-04
 -1       177-8.76566E-09-3.38935E-03 2.88153E-06
 -1       178 1.29137E-05-3.69786E-03 2.34337E-05
 -1       179 2.98686E-08-3.48307E-03 2.86857E-05
 -1       180-1.29310E-05-3.69782E-03 2.34380E-05
 -1       181-3.98096E-08-3.37871E-03-1.25508E-04
 -1       182-4.16585E-05-2.75539E-03-3.94271E-04
 -1       183-4.51211E-08-3.51983E-03-4.34224E-04
 -1       184 4.14935E-05-2.75522E-03-3.94097E-04
 -1       190-6.95748E-07-1.15935E-04-1.95475E-06
 -1       191 1.46867E-05-4.58907E-04 1.65667E-04
 -1       192-7.63000E-07-4.65532E-04-3.62884E-06
 -1       193-1.56259E-05-4.58696E-04-1.73541E-04
 -1       194-3.33749E-07-9.27714E-04-6.37172E-06
 -1       195 2.69292E-06-1.48749E-03 2.44340E-04
 -1       196-1.29420E-06-1.48567E-03-7.91253E-06
 -1       197-3.83564E-06-1.48629E-03-2.60471E-04
 -1       198-3.86070E-07-2.06344E-03-1.08817E-05
 -1       199-1.04837E-05-2.61247E-03 2.11309E-04
 -1       200-2.01190E-06-2.62491E-03-8.45746E-06
 -1       201 9.02086E-06-2.60253E-03-2.33861E-04
 -1       202 3.28667E-06-3.10093E-03-1.49326E-05
 -1       203-1.95436E-05-3.45411E-03 7.75108E-05
 -1       204 6.73193E-06-3.39408E-03-2.39042E-05
 -1       205 2.37092E-05-3.43996E-03-1.17048E-04
 -1       206-1.16297E-05-3.50291E-03-2.18065E-05
 -1       207 1.35240E-05-3.33196E-03-1.95115E-05
 -1       208-3.16374E-05-3.45117E-03-1.37713E-05
 -1       209-6.60940E-06-3.35093E-03-2.76189E-05
 -1       210 5.00940E-05-3.39012E-03-2.23993E-05
 -1       211-7.84385E-05-3.84277E-03-2.08746E-04
 -1       212 4.60914E-05-3.03122E-03-2.37400E-05
 -1       213 6.65973E-05-3.75412E-03 1.60733E-04
 -1       219 6.84841E-12-1.41508E-04-1.73687E-06
 -1       220-3.45636E-10-4.78040E-04-1.79647E-04
 -1       221-3.95871E-07-4.79604E-04-4.19581E-06
 -1       222 2.35497E-11-4.78685E-04-4.51487E-06
 -1       223 3.95918E-07-4.79604E-04-4.19583E-06
 -1       224 3.91933E-10-4.76800E-04 1.71464E-04
 -1       225 4.85960E-11-9.43241E-04-5.89574E-06
 -1       226-9.50898E-10-1.49353E-03-2.66218E-04
 -1       227-5.81687E-07-1.48098E-03-8.18520E-06
 -1       228 7.61356E-11-1.47785E-03-9.43485E-06
 -1       229 5.81843E-07-1.48098E-03-8.18523E-06
 -1       230 1.10298E-09-1.49037E-03 2.48518E-04
 -1       231 1.10188E-10-2.06747E-03-9.18712E-06
 -1       232-2.54039E-09-2.60875E-03-2.42726E-04
 -1       233-1.00283E-06-2.60523E-03-1.44617E-05
 -1       234 1.39019E-10-2.58254E-03-1.69502E-05
 -1       235 1.00311E-06-2.60522E-03-1.44617E-05
 -1       236 2.81776E-09-2.59345E-03 2.16623E-04
 -1       237 1.70210E-10-3.10480E-03-1.04092E-05
 -1       238-5.66925E-09-3.47614E-03-1.24520E-04
 -1       239 4.64889E-06-3.33908E-03-1.65484E-05
 -1       240 1.89981E-10-3.33163E-03-1.90531E-05
 -1       241-4.64850E-06-3.33907E-03-1.65484E-05
 -1       242 6.06243E-09-3.41526E-03 8.20583E-05
 -1       243 2.12534E-10-3.50766E-03-2.76345E-05
 -1       244-1.29462E-08-3.30709E-03-2.42060E-05
 -1       245-1.12886E-05-3.45823E-03-3.21502E-05
 -1       246 2.11702E-10-3.28464E-03-2.46730E-05
 -1       247 1.12890E-05-3.45821E-03-3.21502E-05
 -1       248 1.33886E-08-3.26358E-03-6.78073E-06
 -1       249 1.95496E-10-3.49773E-03-2.22546E-05
 -1       250 4.03158E-08-3.37366E-03 1.04753E-04
 -1       251 4.68786E-06-2.46172E-03 1.52168E-05
 -1       252 1.42415E-10-2.61203E-03-6.63858E-06
 -1       253-4.68754E-06-2.46180E-03 1.52169E-05
 -1       254-3.98417E-08-3.52629E-03-2.52126E-04
 -3
    1PSTEP                         2           2           1          
  100CL  102 8.00000E-03         201                     1    2           1
 -4  DISP        4    1
 -5  D1          1    2    1    0
 -5  D2          1    2    2    0
 -5  D3          1    2    3    0
 -5  ALL         1    2    0    0    1ALL
 -1         1 0.00000E+00 0.00000E+00 0.00000E+00
 -1         2 0.00000E+00 0.00000E+00 0.00000E+00
 -1         3 0.00000E+00 0.00000E+00 0.00000E+00
 -1         4 0.00000E+00 0.00000E+00 0.00000E+00
 -1         9 0.00000E+00 0.00000E+00 0.00000E+00
 -1        10 0.00000E+00 0.00000E+00 0.00000E+00
 -1        11 0.00000E+00 0.00000E+00 0.00000E+00
 -1        12 0.00000E+00 0.00000E+00 0.00000E+00
 -1        13 0.00000E+00 0.00000E+00 0.00000E+00
 -1        14 0.00000E+00 0.00000E+00 0.00000E+00
 -1        15 0.00000E+00 0.00000E+00 0.00000E+00
 -1        16 0.00000E+00 0.00000E+00 0.00000E+00
 -1        17 0.00000E+00 0.00000E+00 0.00000E+00
 -1        18 0.00000E+00 0.00000E+00 0.00000E+00
 -1        19 0.00000E+00 0.00000E+00 0.00000E+00
 -1        20 0.00000E+00 0.00000E+00 0.00000E+00
 -1        33-2.20136E-05 5.51202E-05 7.09705E-05
 -1        34-1.07967E-05 1.70037E-04 1.28811E-04
 -1        35-9.22315E-06 3.41391E-04 1.66161E-04
 -1        36-3.80850E-06 5.35601E-04 1.83031E-04
 -1        37 2.99808E-06 7.41935E-04 1.82715E-04
 -1        38 8.68047E-06 9.45609E-04 1.64400E-04
 -1        39 1.21770E-05 1.10169E-03 1.20702E-04
 -1        40 9.23199E-06 1.22059E-03 4.59101E-05
 -1        41 2.78389E-05 1.24676E-03-7.81897E-06
 -1        42 2.01547E-05 1.26353E-03-2.74055E-05
 -1        43-1.29514E-05 1.11867E-03-3.93807E-05
 -1        44-6.36706E-05 1.07816E-03-1.61000E-04
 -1        51 6.17327E-05 1.07963E-03-1.61352E-04
 -1        52 8.73793E-06 1.11947E-03-3.90091E-05
 -1        53-2.46721E-05 1.26494E-03-2.68372E-05
 -1        54-3.25264E-05 1.24741E-03-7.70981E-06
 -1        55-1.34599E-05 1.22140E-03 4.57045E-05
 -1        56-1.61695E-05 1.10224E-03 1.20286E-04
 -1        57-1.20102E-05 9.46162E-04 1.63922E-04
 -1        58-5.71099E-06 7.42309E-04 1.82142E-04
 -1        59 1.86285E-06 5.35920E-04 1.82458E-04
 -1        60 7.92258E-06 3.41587E-04 1.65635E-04
 -1        61 1.01302E-05 1.70158E-04 1.28412E-04
 -1        62 2.17708E-05 5.51170E-05 7.07465E-05
 -1        63 2.23230E-05 5.55176E-05-7.19958E-05
 -1        64 1.05059E-05 1.70018E-04-1.31023E-04
 -1        65 8.65003E-06 3.42018E-04-1.69486E-04
 -1        66 2.21888E-06 5.34803E-04-1.87648E-04
 -1        67-4.49510E-06 7.43092E-04-1.88494E-04
 -1        68-1.05469E-05 9.41316E-04-1.72374E-04
 -1        69-1.53777E-05 1.10547E-03-1.29872E-04
 -1        70-8.23505E-06 1.21063E-03-5.54266E-05
 -1        71-3.51282E-05 1.25616E-03-7.16768E-06
 -1        72-2.49508E-05 1.27925E-03 2.26477E-06
 -1        73 1.83702E-05 1.09414E-03 2.48179E-05
 -1        74 7.77939E-05 1.04010E-03 1.51100E-04
 -1        78-2.24303E-05 5.56543E-05-7.22189E-05