    1C
    1UUSER                                                              
    1UDATE              12.july.2018                                    
    1UTIME              16:49:39                                        
    1UHOST                                                              
    1UPGM               CalculiX                                        
    1UVERSION           Version 2.13                             
    1UCOMPILETIME       jue jun 14 00:40:39 CEST 2018                    
    1UDIR                                                               
    1UDBN                                                               
    1UMAT    1EL                                                        
    2C                            81                                     1
 -1         5 0.00000E+00 0.00000E+00 8.00000E+00
 -1         6 1.00000E+00 0.00000E+00 8.00000E+00
 -1         7 1.00000E+00 1.00000E+00 8.00000E+00
 -1         8 0.00000E+00 1.00000E+00 8.00000E+00
 -1        21 2.50000E-01 0.00000E+00 8.00000E+00
 -1        22 5.00000E-01 0.00000E+00 8.00000E+00
 -1        23 7.50000E-01 0.00000E+00 8.00000E+00
 -1        24 1.00000E+00 2.50000E-01 8.00000E+00
 -1        25 1.00000E+00 5.00000E-01 8.00000E+00
 -1        26 1.00000E+00 7.50000E-01 8.00000E+00
 -1        27 7.50000E-01 1.00000E+00 8.00000E+00
 -1        28 5.00000E-01 1.00000E+00 8.00000E+00
 -1        29 2.50000E-01 1.00000E+00 8.00000E+00
 -1        30 0.00000E+00 7.50000E-01 8.00000E+00
 -1        31 0.00000E+00 5.00000E-01 8.00000E+00
 -1        32 0.00000E+00 2.50000E-01 8.00000E+00
 -1        44 1.00000E+00 0.00000E+00 6.00000E+00
 -1        45 1.00000E+00 0.00000E+00 6.50000E+00
 -1        46 1.00000E+00 0.00000E+00 7.00000E+00
 -1        47 1.00000E+00 0.00000E+00 7.50000E+00
 -1        48 0.00000E+00 0.00000E+00 7.50000E+00
 -1        49 0.00000E+00 0.00000E+00 7.00000E+00
 -1        50 0.00000E+00 0.00000E+00 6.50000E+00
 -1        51 0.00000E+00 0.00000E+00 6.00000E+00
 -1        74 1.00000E+00 1.00000E+00 6.00000E+00
 -1        75 1.00000E+00 1.00000E+00 6.50000E+00
 -1        76 1.00000E+00 1.00000E+00 7.00000E+00
 -1        77 1.00000E+00 1.00000E+00 7.50000E+00
 -1        89 0.00000E+00 1.00000E+00 6.00000E+00
 -1        90 0.00000E+00 1.00000E+00 6.50000E+00
 -1        91 0.00000E+00 1.00000E+00 7.00000E+00
 -1        92 0.00000E+00 1.00000E+00 7.50000E+00
 -1        98 5.00000E-01 2.50000E-01 8.00000E+00
 -1        99 2.50000E-01 5.00000E-01 8.00000E+00
 -1       100 5.00000E-01 5.00000E-01 8.00000E+00
 -1       101 7.50000E-01 5.00000E-01 8.00000E+00
 -1       102 5.00000E-01 7.50000E-01 8.00000E+00
 -1       124 2.50000E-01 0.00000E+00 6.00000E+00
 -1       125 5.00000E-01 0.00000E+00 6.00000E+00
 -1       126 7.50000E-01 0.00000E+00 6.00000E+00
 -1       127 5.00000E-01 0.00000E+00 6.50000E+00
 -1       128 2.50000E-01 0.00000E+00 7.00000E+00
 -1       129 5.00000E-01 0.00000E+00 7.00000E+00
 -1       130 7.50000E-01 0.00000E+00 7.00000E+00
 -1       131 5.00000E-01 0.00000E+00 7.50000E+00
 -1       153 1.00000E+00 2.50000E-01 6.00000E+00
 -1       154 1.00000E+00 5.00000E-01 6.00000E+00
 -1       155 1.00000E+00 7.50000E-01 6.00000E+00
 -1       156 1.00000E+00 5.00000E-01 6.50000E+00
 -1       157 1.00000E+00 2.50000E-01 7.00000E+00
 -1       158 1.00000E+00 5.00000E-01 7.00000E+00
 -1       159 1.00000E+00 7.50000E-01 7.00000E+00
 -1       160 1.00000E+00 5.00000E-01 7.50000E+00
 -1       182 7.50000E-01 1.00000E+00 6.00000E+00
 -1       183 5.00000E-01 1.00000E+00 6.00000E+00
 -1       184 2.50000E-01 1.00000E+00 6.00000E+00
 -1       185 5.00000E-01 1.00000E+00 6.50000E+00
 -1       186 7.50000E-01 1.00000E+00 7.00000E+00
 -1       187 5.00000E-01 1.00000E+00 7.00000E+00
 -1       188 2.50000E-01 1.00000E+00 7.00000E+00
 -1       189 5.00000E-01 1.00000E+00 7.50000E+00
 -1       211 0.00000E+00 7.50000E-01 6.00000E+00
 -1       212 0.00000E+00 5.00000E-01 6.00000E+00
 -1       213 0.00000E+00 2.50000E-01 6.00000E+00
 -1       214 0.00000E+00 5.00000E-01 6.50000E+00
 -1       215 0.00000E+00 7.50000E-01 7.00000E+00
 -1       216 0.00000E+00 5.00000E-01 7.00000E+00
 -1       217 0.00000E+00 2.50000E-01 7.00000E+00
 -1       218 0.00000E+00 5.00000E-01 7.50000E+00
 -1       250 5.00000E-01 2.50000E-01 6.00000E+00
 -1       251 2.50000E-01 5.00000E-01 6.00000E+00
 -1       252 5.00000E-01 5.00000E-01 6.00000E+00
 -1       253 7.50000E-01 5.00000E-01 6.00000E+00
 -1       254 5.00000E-01 7.50000E-01 6.00000E+00
 -1       255 5.00000E-01 5.00000E-01 6.50000E+00
 -1       256 5.00000E-01 2.50000E-01 7.00000E+00
 -1       257 2.50000E-01 5.00000E-01 7.00000E+00
 -1       258 5.00000E-01 5.00000E-01 7.00000E+00
 -1       259 7.50000E-01 5.00000E-01 7.00000E+00
 -1       260 5.00000E-01 7.50000E-01 7.00000E+00
 -1       261 5.00000E-01 5.00000E-01 7.50000E+00
 -3
    3C                             8                                     1
 -1        25    4    0    1
 -2        51       125       252       212        49       129       258       216       124       250
 -2       251       213        50       127       255       214       128       256       257       217
 -1        26    4    0    1
 -2       125        44       154       252       129        46       158       258       126       153
 -2       253       250       127        45       156       255       130       157       259       256
 -1        27    4    0    1
 -2       212       252       183        89       216       258       187        91       251       254
 -2       184       211       214       255       185        90       257       260       188       215
 -1        28    4    0    1
 -2       252       154        74       183       258       158        76       187       253       155
 -2       182       254       255       156        75       185       259       159       186       260
 -1        29    4    0    1
 -2        49       129       258       216         5        22       100        31       128       256
 -2       257       217        48       131       261       218        21        98        99        32
 -1        30    4    0    1
 -2       129        46       158       258        22         6        25       100       130       157
 -2       259       256       131        47       160       261        23        24       101        98
 -1        31    4    0    1
 -2       216       258       187        91        31       100        28         8       257       260
 -2       188       215       218       261       189        92        99       102        29        30
 -1        32    4    0    1
 -2       258       158        76       187       100        25         7        28       259       159
 -2       186       260       261       160        77       189       101        26        27       102
 -3
    1PSTEP                         1           1           1          
  100CL  101 4.00000E-03          81                     1    1           1
 -4  DISP        4    1
 -5  D1          1    2    1    0
 -5  D2          1    2    2    0
 -5  D3          1    2    3    0
 -5  ALL         1    2    0    0    1ALL
 -1         5 0.00000E+00 0.00000E+00 0.00000E+00
 -1         6 0.00000E+00 0.00000E+00 0.00000E+00
 -1         7 0.00000E+00 0.00000E+00 0.00000E+00
 -1         8 0.00000E+00 0.00000E+00 0.00000E+00
 -1        21 0.00000E+00 0.00000E+00 0.00000E+00
 -1        22 0.00000E+00 0.00000E+00 0.00000E+00
 -1        23 0.00000E+00 0.00000E+00 0.00000E+00
 -1        24 0.00000E+00 0.00000E+00 0.00000E+00
 -1        25 0.00000E+00 0.00000E+00 0.00000E+00
 -1        26 0.00000E+00 0.00000E+00 0.00000E+00
 -1        27 0.00000E+00 0.00000E+00 0.00000E+00
 -1        28 0.00000E+00 0.00000E+00 0.00000E+00
 -1        29 0.00000E+00 0.00000E+00 0.00000E+00
 -1        30 0.00000E+00 0.00000E+00 0.00000E+00
 -1        31 0.00000E+00 0.00000E+00 0.00000E+00
 -1        32 0.00000E+00 0.00000E+00 0.00000E+00
 -1        44-6.81598E-05-3.68207E-03 4.81060E-04
 -1        45 7.21717E-05-2.73212E-03 8.23612E-04
 -1        46-6.28070E-05-1.96012E-03 1.03136E-03
 -1        47 1.42001E-04-7.26130E-04 5.85104E-04
 -1        48-1.42034E-04-7.26170E-04 5.85192E-04
 -1        49 6.25323E-05-1.96023E-03 1.03157E-03
 -1        50-7.26337E-05-2.73207E-03 8.24081E-04
 -1        51 6.68031E-05-3.68252E-03 4.82097E-04
 -1        74 2.98311E-04-4.67920E-03-5.42699E-04
 -1        75 1.72311E-04-3.15599E-03-8.29622E-04
 -1        76-9.95795E-05-1.75895E-03-1.03381E-03
 -1        77-2.20039E-04-5.69075E-04-6.02181E-04
 -1        89-2.99659E-04-4.67876E-03-5.41668E-04
 -1        90-1.72777E-04-3.15603E-03-8.29152E-04
 -1        91 9.93083E-05-1.75884E-03-1.03360E-03
 -1        92 2.20006E-04-5.69035E-04-6.02091E-04
 -1        98 0.00000E+00 0.00000E+00 0.00000E+00
 -1        99 0.00000E+00 0.00000E+00 0.00000E+00
 -1       100 0.00000E+00 0.00000E+00 0.00000E+00
 -1       101 0.00000E+00 0.00000E+00 0.00000E+00
 -1       102 0.00000E+00 0.00000E+00 0.00000E+00
 -1       124 2.63192E-04-3.19412E-03 4.60470E-04
 -1       125-4.54254E-07-3.92394E-03 4.84511E-04
 -1       126-2.64285E-04-3.19392E-03 4.60119E-04
 -1       127-2.97830E-07-2.78156E-03 1.00402E-03
 -1       128-3.03557E-05-2.10803E-03 1.02357E-03
 -1       129-6.53540E-08-1.93598E-03 1.01091E-03
 -1       130 3.01544E-05-2.10797E-03 1.02343E-03
 -1       131-1.05133E-08-7.89559E-04 5.97757E-04
 -1       153 8.87448E-05-3.90916E-03 2.01025E-04
 -1       154-1.44120E-04-2.54189E-03-2.62917E-05
 -1       155-7.18840E-05-4.15233E-03-2.58857E-04
 -1       156-1.31198E-04-3.03123E-03-7.09472E-05
 -1       157-3.16608E-05-1.60054E-03 4.22560E-04
 -1       158 9.87999E-05-1.65868E-03-3.29568E-05
 -1       159 5.82565E-05-1.57540E-03-4.46523E-04
 -1       160 4.42969E-05-7.10915E-04 5.82008E-06
 -1       182 1.83767E-04-2.76712E-03-5.10867E-04
 -1       183-4.60915E-07-4.75137E-03-5.19461E-04
 -1       184-1.84862E-04-2.76691E-03-5.10510E-04
 -1       185-2.95347E-07-3.08529E-03-9.75948E-04
 -1       186-5.95653E-05-2.34477E-03-1.06478E-03
 -1       187-6.74728E-08-1.97273E-03-1.04191E-03
 -1       188 5.93636E-05-2.34472E-03-1.06463E-03
 -1       189-1.02643E-08-7.75010E-04-6.09252E-04
 -1       211 7.03218E-05-4.15213E-03-2.58050E-04
 -1       212 1.42407E-04-2.54188E-03-2.53923E-05
 -1       213-9.03100E-05-3.90935E-03 2.01828E-04
 -1       214 1.30819E-04-3.03123E-03-7.04604E-05
 -1       215-5.85780E-05-1.57534E-03-4.46271E-04
 -1       216-9.91722E-05-1.65867E-03-3.27438E-05
 -1       217 3.13373E-05-1.60060E-03 4.22813E-04
 -1       218-4.43449E-05-7.10916E-04 5.85312E-06
 -1       250-4.23578E-07-4.41880E-03 1.90754E-04
 -1       251 2.47094E-05-2.76958E-03-1.10219E-05
 -1       252-3.81343E-07-3.46470E-03-8.38336E-06
 -1       253-2.59114E-05-2.76958E-03-1.10465E-05
 -1       254-4.27528E-07-4.80408E-03-2.84004E-04
 -1       255-3.61362E-07-2.76863E-03-3.46512E-05
 -1       256-4.28584E-08-1.75157E-03 4.26093E-04
 -1       257-4.38071E-05-1.88017E-03-1.43763E-05
 -1       258-1.81242E-08-1.96215E-03-1.80216E-05
 -1       259 4.36081E-05-1.88017E-03-1.45772E-05
 -1       260-4.37945E-08-1.77041E-03-4.51793E-04
 -1       261-3.28246E-08-7.71311E-04-2.52365E-06
 -3
    1PSTEP                         2           2           1          
  100CL  102 8.00000E-03          81                     1    2           1
 -4  DISP        4    1
 -5  D1          1    2    1    0
 -5  D2          1    2    2    0
 -5  D3          1    2    3    0
 -5  ALL         1    2    0    0    1ALL
 -1         5 0.00000E+00 0.00000E+00 0.00000E+00
 -1         6 0.00000E+00 0.00000E+00 0.00000E+00
 -1         7 0.00000E+00 0.00000E+00 0.00000E+00
 -1         8 0.00000E+00 0.00000E+00 0.00000E+00
 -1        21 0.00000E+00 0.00000E+00 0.00000E+00
 -1        22 0.00000E+00 0.00000E+00 0.00000E+00
 -1        23 0.00000E+00 0.00000E+00 0.00000E+00
 -1        24 0.00000E+00 0.00000E+00 0.00000E+00
 -1        25 0.00000E+00 0.00000E+00 0.00000E+00
 -1        26 0.00000E+00 0.00000E+00 0.00000E+00
 -1        27 0.00000E+00 0.00000E+00 0.00000E+00
 -1        28 0.00000E+00 0.00000E+00 0.00000E+00
 -1        29 0.00000E+00 0.00000E+00 0.00000E+00
 -1        30 0.00000E+00 0.00000E+00 0.00000E+00
 -1        31 0.00000E+00 0.00000E+00 0.00000E+00
 -1        32 0.00000E+00 0.00000E+00 0.00000E+00
 -1        44-2.11071E-04 1.05008E-03-1.70101E-04
 -1        45-1.53105E-05 8.57633E-04-2.50735E-04
 -1        46 3.69564E-05 6.44654E-04-2.70136E-04
 -1        47-3.29507E-05 2.77452E-04-2.06297E-04
 -1        48 3.29656E-05 2.77491E-04-2.06493E-04
 -1        49-3.71402E-05 6.44739E-04-2.70379E-04
 -1        50 1.59485E-05 8.57471E-04-2.50460E-04
 -1        51 2.11661E-04 1.04894E-03-1.69756E-04
 -1        74 3.44639E-04 6.63733E-04 1.53078E-04
 -1        75 1.29960E-04 6.84272E-04 2.51194E-04
 -1        76-1.01682E-04 7.24346E-04 2.70386E-04
 -1        77-1.28844E-06 3.37913E-04 2.01105E-04
 -1        89-3.43996E-04 6.64854E-04 1.53364E-04
 -1        90-1.29327E-04 6.84421E-04 2.51450E-04
 -1        91 1.01500E-04 7.24264E-04 2.70133E-04
 -1        92 1.30170E-06 3.37873E-04 2.00903E-04
 -1        98 0.00000E+00 0.00000E+00 0.00000E+00
 -1        99 0.00000E+00 0.00000E+00 0.00000E+00
 -1       100 0.00000E+00 0.00000E+00 0.00000E+00
 -1       101 0.00000E+00 0.00000E+00 0.00000E+00
 -1       102 0.00000E+00 0.00000E+00 0.00000E+00
 -1       124 3.11322E-05 1.01873E-03-1.56818E-04
 -1       125 6.66426E-07 1.21515E-03-1.66036E-04
 -1       126-3.03517E-05 1.01886E-03-1.56610E-04
 -1       127 1.97116E-08 9.17604E-04-2.62047E-04
 -1       128-1.81039E-06 6.56768E-04-3.14813E-04
 -1       129 1.81521E-07 6.04760E-04-3.27948E-04
 -1       130 1.95129E-06 6.56811E-04-3.14790E-04
 -1       131-2.48205E-08 2.67616E-04-1.90603E-04
 -1       153 1.90900E-04 1.43021E-03-7.80159E-05
 -1       154-3.69732E-05 1.49149E-03-7.08418E-06
 -1       155-2.03870E-04 1.28128E-03 6.12608E-05
 -1       156-4.47617E-05 9.87933E-04-2.60690E-05
 -1       157-4.01448E-05 5.73381E-04-1.21926E-04
 -1       158 3.02950E-05 5.81332E-04-1.14954E-05
 -1       159 5.24143E-05 5.97484E-04 1.15785E-04
 -1       160 1.48732E-05 2.00400E-04 1.83439E-06
 -1       182 7.39617E-05 1.18136E-03 1.42374E-04
 -1       183 6.82050E-07 9.21400E-04 1.55215E-04
 -1       184-7.31436E-05 1.18148E-03 1.42123E-04
 -1       185 1.42735E-08 8.20369E-04 2.78502E-04
 -1       186-2.61897E-05 5.78228E-04 3.02025E-04
 -1       187 1.80891E-07 6.04458E-04 3.22049E-04
 -1       188 2.63313E-05 5.78273E-04 3.01998E-04
 -1       189-2.53601E-08 2.73432E-04 1.87744E-04
 -1       211 2.04003E-04 1.28210E-03 6.09752E-05
 -1       212 3.71839E-05 1.49147E-03-6.21803E-06
 -1       213-1.90804E-04 1.42936E-03-7.82322E-05
 -1       214 4.48113E-05 9.87943E-04-2.61152E-05
 -1       215-5.23288E-05 5.97387E-04 1.15775E-04
 -1       216-3.00629E-05 5.81324E-04-1.16722E-05
 -1       217 4.02312E-05 5.73472E-04-1.21939E-04
 -1       218-1.48456E-05 2.00400E-04 1.79208E-06
 -1       250 2.03079E-07 1.21188E-03-8.38866E-05
 -1       251 3.28961E-05 7.84152E-04-2.57880E-06
 -1       252-3.92547E-07 1.06368E-03-5.95714E-06
 -1       253-3.30799E-05 7.84168E-04-3.21583E-06
 -1       254 2.13131E-07 1.13462E-03 5.38562E-05
 -1       255 1.29084E-07 1.01104E-03-1.15431E-05
 -1       256 6.30557E-08 5.35833E-04-1.50686E-04
 -1       257-1.95081E-05 6.64348E-04-4.32603E-06
 -1       258-3.19613E-08 5.05984E-04-5.16678E-06
 -1       259 1.95567E-05 6.64351E-04-4.18592E-06
 -1       260 6.19825E-08 5.22033E-04 1.42575E-04
 -1       261 5.19641E-08 2.34996E-04-7.41377E-07
 -3
    1PSTEP                         3           3           1          
  100CL  103 1.20000E-02          81                     1    3           1
 -4  DISP        4    1
 -5  D1          1    2    1    0
 -5  D2          1    2    2    0
 -5  D3          1    2    3    0
 -5  ALL         1    2    0    0    1ALL
 -1         5 0.00000E+00 0.00000E+00 0.00000E+00
 -1         6 0.00000E+00 0.00000E+00 0.00000E+00
 -1         7 0.00000E+00 0.00000E+00 0.00000E+00
 -1         8 0.00000E+00 0.00000E+00 0.00000E+00
 -1        21 0.00000E+00 0.00000E+00 0.00000E+00
 -1        22 0.00000E+00 0.00000E+00 0.00000E+00
 -1        23 0.00000E+00 0.00000E+00 0.00000E+00
 -1        24 0.00000E+00 0.00000E+00 0.00000E+00
 -1        25 0.00000E+00 0.00000E+00 0.00000E+00
 -1        26 0.00000E+00 0.00000E+00 0.00000E+00
 -1        27 0.00000E+00 0.00000E+00 0.00000E+00
 -1        28 0.00000E+00 0.00000E+00 0.00000E+00
 -1        29 0.00000E+00 0.00000E+00 0.00000E+00
 -1        30 0.00000E+00 0.00000E+00 0.00000E+00
 -1        31 0.00000E+00 0.00000E+00 0.00000E+00
 -1        32 0.00000E+00 0.00000E+00 0.00000E+00
 -1        44 8.78219E-05-1.29186E-03 1.84341E-04
 -1        45 1.73827E-05-9.96018E-04 2.96614E-04
 -1        46-2.71541E-05-7.18070E-04 3.43475E-04
 -1        47 4.61462E-05-2.88658E-04 2.23553E-04
 -1        48-4.61739E-05-2.88666E-04 2.23593E-04
 -1        49 2.70108E-05-7.18045E-04 3.43563E-04
 -1        50-1.75291E-05-9.96091E-04 2.96686E-04
 -1        51-8.83354E-05-1.29146E-03 1.84340E-04
 -1        74-9.10957E-05-1.28463E-03-1.84865E-04
 -1        75-1.90913E-05-9.92370E-04-2.97872E-04
 -1        76 2.59210E-05-7.18542E-04-3.43571E-04
 -1        77-4.58121E-05-2.89647E-04-2.23368E-04
 -1        89 9.04449E-05-1.28490E-03-1.84685E-04
 -1        90 1.89912E-05-9.92332E-04-2.97772E-04
 -1        91-2.61017E-05-7.18531E-04-3.43494E-04
 -1        92 4.57911E-05-2.89644E-04-2.23348E-04
 -1        98 0.00000E+00 0.00000E+00 0.00000E+00
 -1        99 0.00000E+00 0.00000E+00 0.00000E+00
 -1       100 0.00000E+00 0.00000E+00 0.00000E+00
 -1       101 0.00000E+00 0.00000E+00 0.00000E+00
 -1       102 0.00000E+00 0.00000E+00 0.00000E+00
 -1       124 1.02216E-05-1.16233E-03 1.73163E-04
 -1       125-1.30893E-07-1.39672E-03 1.81597E-04
 -1       126-1.05865E-05-1.16251E-03 1.73276E-04
 -1       127-1.11277E-07-1.02318E-03 3.28551E-04
 -1       128 4.08763E-08-7.60705E-04 3.65935E-04
 -1       129-3.50819E-08-7.05257E-04 3.70874E-04
 -1       130-1.51056E-07-7.60725E-04 3.65866E-04
 -1       131-1.78594E-08-2.98468E-04 2.18794E-04
 -1       153-8.00897E-05-1.50761E-03 8.15481E-05
 -1       154 1.67422E-06-1.30412E-03-3.22916E-07
 -1       155 7.97049E-05-1.49334E-03-8.14786E-05
 -1       156 6.02552E-07-1.11292E-03 5.10996E-07
 -1       157 1.49551E-05-6.22266E-04 1.47723E-04
 -1       158 1.29045E-07-6.35147E-04 6.11283E-08
 -1       159-1.49243E-05-6.24937E-04-1.47964E-04
 -1       160-3.71790E-07-2.45399E-04-1.30251E-07
 -1       182-3.78938E-06-1.16605E-03-1.73108E-04
 -1       183-8.51786E-08-1.39102E-03-1.82184E-04
 -1       184 3.40793E-06-1.16618E-03-1.73212E-04
 -1       185-1.25784E-07-1.02156E-03-3.28876E-04
 -1       186 2.47837E-06-7.60023E-04-3.65948E-04
 -1       187-1.82085E-08-7.07553E-04-3.70943E-04
 -1       188-2.59049E-06-7.60024E-04-3.65866E-04
 -1       189-1.99925E-08-2.98888E-04-2.18746E-04
 -1       211-7.98057E-05-1.49349E-03-8.14684E-05
 -1       212-1.26231E-06-1.30416E-03-7.30557E-07
 -1       213 8.00536E-05-1.50744E-03 8.15394E-05
 -1       214-9.93329E-07-1.11291E-03 4.97622E-07
 -1       215 1.48569E-05-6.24939E-04-1.47896E-04
 -1       216-6.55201E-08-6.35159E-04 1.81882E-07
 -1       217-1.50042E-05-6.22258E-04 1.47781E-04
 -1       218 3.11360E-07-2.45396E-04-2.08583E-08
 -1       250-1.92856E-07-1.51521E-03 8.11746E-05
 -1       251-7.41250E-06-9.55143E-04-3.39971E-07
 -1       252-2.56457E-07-1.23284E-03 3.28266E-07
 -1       253 7.32620E-06-9.55125E-04-5.60710E-07
 -1       254-1.70483E-07-1.52560E-03-8.10424E-05
 -1       255-1.62933E-08-1.08168E-03 2.20432E-08
 -1       256-8.39619E-08-6.22972E-04 1.62509E-04
 -1       257 1.38516E-06-7.20473E-04 3.92758E-08
 -1       258-1.29938E-07-6.47342E-04-6.15711E-09
 -1       259-1.47994E-06-7.20466E-04 7.70072E-08
 -1       260-7.49203E-08-6.21177E-04-1.62478E-04
 -1       261-3.74252E-09-2.75495E-04-9.35724E-11
 -3
    1PSTEP                         4           4           1          
  100CL  104 1.60000E-02          81                     1    4           1
 -4  DISP        4    1
 -5  D1          1    2    1    0
 -5  D2          1    2    2    0
 -5  D3          1    2    3    0
 -5  ALL         1    2    0    0    1ALL
 -1         5 0.00000E+00 0.00000E+00 0.00000E+00
 -1         6 0.00000E+00 0.00000E+00 0.00000E+00
 -1         7 0.00000E+00 0.00000E+00 0.00000E+00
 -1         8 0.00000E+00 0.00000E+00 0.00000E+00
 -1        21 0.00000E+00 0.00000E+00 0.00000E+00
 -1        22 0.00000E+00 0.00000E+00 0.00000E+00
 -1        23 0.00000E+00 0.00000E+00 0.00000E+00
 -1        24 0.00000E+00 0.00000E+00 0.00000E+00
 -1        25 0.00000E+00 0.00000E+00 0.00000E+00
 -1        26 0.00000E+00 0.00000E+00 0.00000E+00
 -1        27 0.00000E+00 0.00000E+00 0.00000E+00
 -1        28 0.00000E+00 0.00000E+00 0.00000E+00
 -1        29 0.00000E+00 0.00000E+00 0.00000E+00
 -1        30 0.00000E+00 0.00000E+00 0.00000E+00
 -1        31 0.00000E+00 0.00000E+00 0.00000E+00
 -1        32 0.00000E+00 0.00000E+00 0.00000E+00
 -1        44-7.60783E-05 1.00565E-03-1.43613E-04
 -1        45-1.33176E-05 7.77884E-04-2.31130E-04
 -1        46 2.18500E-05 5.56559E-04-2.65823E-04
 -1        47-3.56581E-05 2.24337E-04-1.74146E-04
 -1        48 3.57142E-05 2.24428E-04-1.74545E-04
 -1        49-2.20439E-05 5.56708E-04-2.66366E-04
 -1        50 1.46741E-05 7.77652E-04-2.30915E-04
 -1        51 7.75993E-05 1.00392E-03-1.43418E-04
 -1        74 9.22734E-05 9.89003E-04 1.43878E-04
 -1        75 2.25968E-05 7.68915E-04 2.31579E-04
 -1        76-2.37951E-05 5.59100E-04 2.66278E-04
 -1        77 3.35582E-05 2.26746E-04 1.74408E-04
 -1        89-9.07070E-05 9.90653E-04 1.44000E-04
 -1        90-2.12774E-05 7.69202E-04 2.31791E-04
 -1        91 2.36326E-05 5.58917E-04 2.65775E-04
 -1        92-3.35037E-05 2.26660E-04 1.74040E-04
 -1        98 0.00000E+00 0.00000E+00 0.00000E+00
 -1        99 0.00000E+00 0.00000E+00 0.00000E+00
 -1       100 0.00000E+00 0.00000E+00 0.00000E+00
 -1       101 0.00000E+00 0.00000E+00 0.00000E+00
 -1       102 0.00000E+00 0.00000E+00 0.00000E+00
 -1       124-7.42855E-06 9.04367E-04-1.35725E-04
 -1       125 1.39896E-06 1.09152E-03-1.41392E-04
 -1       126 9.28217E-06 9.04521E-04-1.35133E-04
 -1       127 1.61290E-07 7.97596E-04-2.55648E-04
 -1       128 5.90411E-07 5.90843E-04-2.85033E-04
 -1       129 3.60984E-07 5.47650E-04-2.89732E-04
 -1       130-2.45015E-07 5.90908E-04-2.84936E-04
 -1       131-3.42671E-08 2.31441E-04-1.69954E-04
 -1       153 7.08457E-05 1.18439E-03-6.33824E-05
 -1       154 2.71342E-06 1.03752E-03-1.72020E-07
 -1       155-7.44001E-05 1.15987E-03 6.41504E-05
 -1       156-1.32348E-07 8.68001E-04-7.18172E-07
 -1       157-1.39966E-05 4.83366E-04-1.14624E-04
 -1       158-6.03545E-07 4.94324E-04-1.22061E-07
 -1       159 1.52438E-05 4.88293E-04 1.14951E-04
 -1       160 2.24071E-07 1.88898E-04 6.95593E-08
 -1       182 1.66025E-05 9.10193E-04 1.35653E-04
 -1       183 1.33855E-06 1.08516E-03 1.42019E-04
 -1       184-1.47849E-05 9.10317E-04 1.35156E-04
 -1       185 1.87762E-07 7.97525E-04 2.57358E-04
 -1       186-4.12150E-06 5.89727E-04 2.84977E-04
 -1       187 3.46973E-07 5.49761E-04 2.90261E-04
 -1       188 4.46811E-06 5.89775E-04 2.84875E-04
 -1       189-3.13084E-08 2.31375E-04 1.69903E-04
 -1       211 7.52817E-05 1.16118E-03 6.34602E-05
 -1       212-1.54194E-06 1.03759E-03 7.63775E-07
 -1       213-6.99695E-05 1.18312E-03-6.41898E-05
 -1       214 4.45197E-07 8.67972E-04-1.04262E-06
 -1       215-1.49364E-05 4.88127E-04 1.14793E-04
 -1       216 1.17757E-06 4.94347E-04-5.22075E-07
 -1       217 1.42862E-05 4.83538E-04-1.14771E-04
 -1       218-1.44199E-07 1.88896E-04-3.09909E-08
 -1       250 6.07011E-07 1.17731E-03-6.30151E-05
 -1       251 9.56248E-06 7.41650E-04 8.41647E-07
 -1       252-4.13876E-07 9.57160E-04 1.89213E-07
 -1       253-9.23976E-06 7.41610E-04-1.39285E-07
 -1       254 5.73629E-07 1.19495E-03 6.31734E-05
 -1       255 3.91729E-07 8.44598E-04 4.66939E-08
 -1       256 1.51329E-07 4.83248E-04-1.27047E-04
 -1       257-1.77263E-06 5.62007E-04-1.42084E-07
 -1       258-1.94486E-08 5.00733E-04-9.69704E-09
 -1       259 1.97995E-06 5.61997E-04 1.82589E-07
 -1       260 1.45215E-07 4.79699E-04 1.26973E-04
 -1       261 1.03739E-07 2.14012E-04 7.91847E-09
 -3
    1PSTEP                         5           5           1          
  100CL  105 2.00000E-02          81                     1    5           1
 -4  DISP        4    1
 -5  D1          1    2    1    0
 -5  D2          1    2    2    0
 -5  D3          1    2    3    0
 -5  ALL         1    2    0    0    1ALL
 -1         5 0.00000E+00 0.00000E+00 0.00000E+00
 -1         6 0.00000E+00 0.00000E+00 0.00000E+00
 -1         7 0.00000E+00 0.00000E+00 0.00000E+00
 -1         8 0.00000E+00 0.00000E+00 0.00000E+00
 -1        21 0.00000E+00 0.00000E+00 0.00000E+00
 -1        22 0.00000E+00 0.00000E+00 0.00000E+00
 -1        23 0.00000E+00 0.00000E+00 0.00000E+00
 -1        24 0.00000E+00 0.00000E+00 0.00000E+00
 -1        25 0.00000E+00 0.00000E+00 0.00000E+00
 -1        26 0.00000E+00 0.00000E+00 0.00000E+00
 -1        27 0.00000E+00 0.00000E+00 0.00000E+00
 -1        28 0.00000E+00 0.00000E+00 0.00000E+00
 -1        29 0.00000E+00 0.00000E+00 0.00000E+00
 -1        30 0.00000E+00 0.00000E+00 0.00000E+00
 -1        31 0.00000E+00 0.00000E+00 0.00000E+00
 -1        32 0.00000E+00 0.00000E+00 0.00000E+00
 -1        44 5.24892E-05-7.46840E-04 1.07470E-04
 -1        45 1.22646E-05-5.76554E-04 1.73319E-04
 -1        46-1.78559E-05-4.25118E-04 2.01279E-04
 -1        47 2.61634E-05-1.70788E-04 1.31132E-04
 -1        48-2.61602E-05-1.70761E-04 1.31010E-04
 -1        49 1.76440E-05-4.25022E-04 2.01166E-04
 -1        50-1.18467E-05-5.76755E-04 1.73524E-04
 -1        51-5.24957E-05-7.47173E-04 1.07626E-04
 -1        74-5.86129E-05-7.42566E-04-1.08499E-04
 -1        75-1.39480E-05-5.73061E-04-1.75081E-04
 -1        76 1.75428E-05-4.26287E-04-2.00757E-04
 -1        77-2.54317E-05-1.71663E-04-1.30654E-04
 -1        89 5.85550E-05-7.42151E-04-1.08243E-04
 -1        90 1.43878E-05-5.72897E-04-1.74855E-04
 -1        91-1.77746E-05-4.26360E-04-2.00899E-04
 -1        92 2.54352E-05-1.71692E-04-1.30796E-04
 -1        98 0.00000E+00 0.00000E+00 0.00000E+00
 -1        99 0.00000E+00 0.00000E+00 0.00000E+00
 -1       100 0.00000E+00 0.00000E+00 0.00000E+00
 -1       101 0.00000E+00 0.00000E+00 0.00000E+00
 -1       102 0.00000E+00 0.00000E+00 0.00000E+00
 -1       124 1.18551E-05-6.81539E-04 1.01059E-04
 -1       125 4.24797E-07-8.13057E-04 1.06599E-04
 -1       126-1.15364E-05-6.81673E-04 1.01387E-04
 -1       127-6.10019E-08-5.99302E-04 1.91670E-04
 -1       128-3.87978E-07-4.44935E-04 2.13741E-04
 -1       129 1.36554E-07-4.11514E-04 2.16384E-04
 -1       130 4.49963E-07-4.44926E-04 2.13696E-04
 -1       131-2.66963E-08-1.74739E-04 1.27891E-04
 -1       153-4.54178E-05-8.84917E-04 4.77214E-05
 -1       154 8.60725E-08-7.54810E-04-9.10953E-07
 -1       155 4.66761E-05-8.77942E-04-4.73545E-05
 -1       156-2.08734E-07-6.46083E-04 6.57933E-07
 -1       157 7.77211E-06-3.65685E-04 8.59413E-05
 -1       158 6.46659E-07-3.75560E-04 7.08965E-08
 -1       159-8.06897E-06-3.67343E-04-8.62170E-05
 -1       160-9.23339E-08-1.45369E-04-7.82445E-08
 -1       182 1.30670E-06-6.83834E-04-1.00441E-04
 -1       183 4.47035E-07-8.09795E-04-1.07467E-04
 -1       184-9.89691E-07-6.83928E-04-1.00806E-04
 -1       185-7.42487E-08-5.99790E-04-1.92041E-04
 -1       186 1.31702E-06-4.44454E-04-2.13889E-04
 -1       187 1.42275E-07-4.11861E-04-2.16617E-04
 -1       188-1.25910E-06-4.44435E-04-2.13841E-04
 -1       189-2.83787E-08-1.74707E-04-1.27819E-04
 -1       211-4.66968E-05-8.77557E-04-4.75064E-05
 -1       212 3.18031E-07-7.54840E-04-5.58964E-07
 -1       213 4.54159E-05-8.85294E-04 4.76254E-05
 -1       214 3.70927E-08-6.46067E-04 6.06579E-07
 -1       215 8.09673E-06-3.67422E-04-8.62085E-05
 -1       216-4.29967E-07-3.75573E-04 1.53182E-08
 -1       217-7.73407E-06-3.65607E-04 8.59415E-05
 -1       218 8.49740E-08-1.45368E-04-3.86775E-08
 -1       250 6.72211E-08-8.69901E-04 4.78423E-05
 -1       251-4.49496E-06-5.61215E-04-5.16820E-07
 -1       252-3.96126E-07-7.11948E-04 6.15094E-07
 -1       253 4.35369E-06-5.61200E-04-1.09337E-06
 -1       254 7.73069E-08-8.75825E-04-4.80251E-05
 -1       255 9.37827E-08-6.31905E-04-3.42237E-08
 -1       256 1.20823E-08-3.66337E-04 9.52420E-05
 -1       257 7.35793E-07-4.20667E-04 5.37485E-08
 -1       258-9.10896E-08-3.78707E-04-5.46188E-08
 -1       259-7.41661E-07-4.20661E-04 1.76744E-07
 -1       260 1.51177E-08-3.64863E-04-9.51460E-05
 -1       261 3.85869E-08-1.61626E-04-1.16224E-07
 -3
    1PSTEP                         6           6           1          
  100CL  106 2.40000E-02          81                     1    6           1
 -4  DISP        4    1
 -5  D1          1    2    1    0
 -5  D2          1    2    2    0
 -5  D3          1    2    3    0
 -5  ALL         1    2    0    0    1ALL
 -1         5 0.00000E+00 0.00000E+00 0.00000E+00
 -1         6 0.00000E+00 0.00000E+00 0.00000E+00
 -1         7 0.00000E+00 0.00000E+00 0.00000E+00
 -1         8 0.00000E+00 0.00000E+00 0.00000E+00
 -1        21 0.00000E+00 0.00000E+00 0.00000E+00
 -1        22 0.00000E+00 0.00000E+00 0.00000E+00
 -1        23 0.00000E+00 0.00000E+00 0.00000E+00
 -1        24 0.00000E+00 0.00000E+00 0.00000E+00
 -1        25 0.00000E+00 0.00000E+00 0.00000E+00
 -1        26 0.00000E+00 0.00000E+00 0.00000E+00
 -1        27 0.00000E+00 0.00000E+00 0.00000E+00
 -1        28 0.00000E+00 0.00000E+00 0.00000E+00
 -1        29 0.00000E+00 0.00000E+00 0.00000E+00
 -1        30 0.00000E+00 0.00000E+00 0.00000E+00
 -1        31 0.00000E+00 0.00000E+00 0.00000E+00
 -1        32 0.00000E+00 0.00000E+00 0.00000E+00
 -1        44-4.24299E-05 5.44877E-04-7.86598E-05
 -1        45-8.32724E-06 4.20860E-04-1.27004E-04
 -1        46 1.28323E-05 3.08009E-04-1.45393E-04
 -1        47-1.88181E-05 1.24127E-04-9.53155E-05