
 displacements (vx,vy,vz) for set NALL and time  0.5000000E-02

         5  0.000000E+00  0.000000E+00  0.000000E+00
         6  0.000000E+00  0.000000E+00  0.000000E+00
         7  0.000000E+00  0.000000E+00  0.000000E+00
         8  0.000000E+00  0.000000E+00  0.000000E+00
        21  0.000000E+00  0.000000E+00  0.000000E+00
        22  0.000000E+00  0.000000E+00  0.000000E+00
        23  0.000000E+00  0.000000E+00  0.000000E+00
        24  0.000000E+00  0.000000E+00  0.000000E+00
        25  0.000000E+00  0.000000E+00  0.000000E+00
        26  0.000000E+00  0.000000E+00  0.000000E+00
        27  0.000000E+00  0.000000E+00  0.000000E+00
        28  0.000000E+00  0.000000E+00  0.000000E+00
        29  0.000000E+00  0.000000E+00  0.000000E+00
        30  0.000000E+00  0.000000E+00  0.000000E+00
        31  0.000000E+00  0.000000E+00  0.000000E+00
        32  0.000000E+00  0.000000E+00  0.000000E+00
        44 -7.079953E-05 -3.467483E-03  4.476587E-04
        45  5.481030E-05 -2.558595E-03  7.851459E-04
        46 -4.493348E-05 -1.794917E-03  9.497361E-04
        47  1.313967E-04 -6.741405E-04  5.421330E-04
        48 -1.314270E-04 -6.741569E-04  5.421804E-04
        49  4.483285E-05 -1.794926E-03  9.498266E-04
        50 -5.503336E-05 -2.558611E-03  7.852864E-04
        51  7.042837E-05 -3.467495E-03  4.478320E-04
        74  3.526339E-04 -4.417516E-03 -4.939862E-04
        75  2.028138E-04 -2.973922E-03 -7.857057E-04
        76 -1.161390E-04 -1.596843E-03 -9.512136E-04
        77 -2.113212E-04 -5.248680E-04 -5.570719E-04
        89 -3.530049E-04 -4.417501E-03 -4.938222E-04
        90 -2.030338E-04 -2.973909E-03 -7.855750E-04
        91  1.160346E-04 -1.596830E-03 -9.511167E-04
        92  2.112923E-04 -5.248531E-04 -5.570246E-04
        98  0.000000E+00  0.000000E+00  0.000000E+00
        99  0.000000E+00  0.000000E+00  0.000000E+00
       100  0.000000E+00  0.000000E+00  0.000000E+00
       101  0.000000E+00  0.000000E+00  0.000000E+00
       102  0.000000E+00  0.000000E+00  0.000000E+00
       124  1.399717E-04 -2.963425E-03  4.284759E-04
       125 -1.890653E-07 -3.579921E-03  4.477247E-04
       126 -1.403422E-04 -2.963417E-03  4.283945E-04
       127 -1.072051E-07 -2.558215E-03  9.018884E-04
       128 -7.224492E-06 -1.952629E-03  9.472299E-04
       129 -5.006015E-08 -1.815226E-03  9.396934E-04
       130  7.125624E-06 -1.952625E-03  9.471839E-04
       131 -1.017803E-08 -7.367076E-04  5.562538E-04
       153  7.891296E-05 -3.618076E-03  1.904047E-04
       154 -1.107470E-04 -2.482239E-03 -2.088861E-05
       155 -8.525507E-05 -3.891737E-03 -2.374472E-04
       156 -1.170188E-04 -2.786792E-03 -6.527420E-05
       157 -2.314926E-05 -1.509076E-03  3.924994E-04
       158  8.500328E-05 -1.564146E-03 -2.955933E-05
       159  5.166486E-05 -1.471273E-03 -4.111429E-04
       160  3.889410E-05 -6.574650E-04  4.792090E-06
       182  1.344237E-04 -2.561386E-03 -4.698601E-04
       183 -1.755300E-07 -4.336204E-03 -4.759394E-04
       184 -1.347819E-04 -2.561380E-03 -4.697736E-04
       185 -1.085357E-07 -2.821749E-03 -8.706314E-04
       186 -4.759342E-05 -2.161558E-03 -9.818482E-04
       187 -4.735748E-08 -1.835131E-03 -9.608882E-04
       188  4.749551E-05 -2.161551E-03 -9.818014E-04
       189 -1.055426E-08 -7.224659E-04 -5.645602E-04
       211  8.488511E-05 -3.891733E-03 -2.372794E-04
       212  1.103857E-04 -2.482253E-03 -2.072631E-05
       213 -7.928582E-05 -3.618091E-03  1.905685E-04
       214  1.167823E-04 -2.786791E-03 -6.514293E-05
       215 -5.176954E-05 -1.471268E-03 -4.110477E-04
       216 -8.510511E-05 -1.564149E-03 -2.946342E-05
       217  2.304708E-05 -1.509081E-03  3.925934E-04
       218 -3.893157E-05 -6.574645E-04  4.841295E-06
       250 -1.983384E-07 -4.089890E-03  1.741553E-04
       251  3.733530E-05 -2.568713E-03 -1.040768E-05
       252 -2.027074E-07 -3.128679E-03 -1.598070E-05
       253 -3.771609E-05 -2.568705E-03 -1.050565E-05
       254 -1.903240E-07 -4.395744E-03 -2.540280E-04
       255 -1.070634E-07 -2.596976E-03 -3.176939E-05
       256 -5.416084E-08 -1.605474E-03  3.945049E-04
       257 -4.218362E-05 -1.746935E-03 -1.196464E-05
       258 -5.685585E-08 -1.790118E-03 -1.456519E-05
       259  4.207738E-05 -1.746934E-03 -1.200793E-05
       260 -5.297131E-08 -1.626434E-03 -4.172680E-04
       261 -1.263196E-08 -7.160025E-04 -1.832263E-06

 forces (fx,fy,fz) for set NALL and time  0.5000000E-02

         5  2.229482E+00 -4.186856E+00 -1.094202E+00
         6 -2.229261E+00 -4.186944E+00 -1.094195E+00
         7  3.336130E+00  9.590923E-01  1.254157E+00
         8 -3.335838E+00  9.589304E-01  1.254191E+00
        21 -2.709487E+00  5.628393E+00 -1.790161E+01
        22  1.655788E-04 -1.002437E+01 -6.404176E-01
        23  2.708964E+00  5.628258E+00 -1.790077E+01
        24 -4.694528E+00  1.712098E+01 -1.022205E+01
        25  7.118948E-01 -1.163308E+01 -4.679128E-01
        26  2.364306E+00  1.354975E+01  1.052221E+01
        27 -1.790028E+00 -2.923904E-01  1.759592E+01
        28  1.545114E-04 -1.726203E+00  1.772983E+00
        29  1.789498E+00 -2.925555E-01  1.759501E+01
        30 -2.364107E+00  1.354976E+01  1.052104E+01
        31 -7.114850E-01 -1.163306E+01 -4.677273E-01
        32  4.694703E+00  1.712097E+01 -1.022315E+01
        44  1.332432E+00  5.203616E+01  1.444049E+00
        45 -7.131441E-06 -6.080380E-01  1.525634E-01
        46  5.450933E-06  1.541473E+00 -4.634098E-01
        47 -1.911801E-06 -1.167011E+00  5.403038E-01
        48  2.089420E-06 -1.167010E+00  5.403044E-01
        49 -4.880397E-06  1.541474E+00 -4.634100E-01
        50  5.313817E-06 -6.080403E-01  1.525630E-01
        51 -1.332516E+00  5.203630E+01  1.444125E+00
        74 -6.348680E+00  1.848196E+01 -1.004723E+00
        75  6.456959E-07 -6.081234E-01 -1.525356E-01
        76 -1.637913E-06  1.541534E+00  4.634018E-01
        77  4.014500E-06 -1.167024E+00 -5.403001E-01
        89  6.348407E+00  1.848202E+01 -1.005216E+00
        90 -3.468033E-06 -6.081198E-01 -1.525355E-01
        91  2.119465E-06  1.541534E+00  4.634019E-01
        92 -3.430511E-06 -1.167026E+00 -5.403000E-01
        98  1.494912E-04  3.814672E+01 -1.716905E+01
        99 -3.722525E-01 -7.604671E+00  6.570518E-01
       100  5.324420E-04 -2.296051E+01 -3.656260E-01
       101  3.712769E-01 -7.604769E+00  6.586227E-01
       102  5.225102E-05  3.523024E+01  1.646584E+01
       124  1.646124E+01  1.931818E+01 -6.292488E-01
       125 -2.106701E-04  1.125954E+02  2.976042E+00
       126 -1.646072E+01  1.931819E+01 -6.295468E-01
       127  4.398525E-07 -1.216077E+00  3.051177E-01
       128  4.557361E-06 -2.615777E+00  9.358650E-01
       129 -1.978077E-07  3.082946E+00 -9.268166E-01
       130 -5.016816E-06 -2.615776E+00  9.358641E-01
       131  5.295621E-07 -2.334021E+00  1.080606E+00
       153  1.211155E+01 -1.326384E+02 -2.316912E+00
       154 -1.631584E+00  9.929341E+01  4.265664E-01
       155  2.283623E+00 -1.090772E+02  1.429380E+00
       156 -1.171602E-05 -1.216153E+00 -2.478953E-05
       157 -7.607186E-06 -2.615785E+00  7.018891E-01
       158  5.803631E-06  3.083006E+00  1.159795E-05
       159 -1.389403E-07 -2.615848E+00 -7.018921E-01
       160 -1.208095E-06 -2.334038E+00 -3.363793E-06
       182  7.806752E+00  6.433616E+01  4.507205E-01
       183 -5.078812E-05  5.222591E+01 -1.418908E+00
       184 -7.806133E+00  6.433613E+01  4.518285E-01
       185  1.291361E-06 -6.742573E+00 -3.050653E-01
       186  2.521124E-06 -8.142179E+00 -9.358385E-01
       187 -4.799457E-07 -2.443243E+00  9.268048E-01
       188 -2.878671E-06 -8.142177E+00 -9.358381E-01
       189  4.008591E-07 -7.860373E+00 -1.080595E+00
       211 -2.283709E+00 -1.090771E+02  1.430597E+00
       212  1.631407E+00  9.929325E+01  4.259208E-01
       213 -1.211168E+01 -1.326386E+02 -2.316480E+00
       214  9.290828E-06 -1.216154E+00 -2.298062E-05
       215 -1.520326E-06 -2.615846E+00 -7.018923E-01
       216 -4.644069E-06  3.083005E+00  1.076122E-05
       217  6.236507E-06 -2.615787E+00  7.018893E-01
       218  5.972774E-07 -2.334038E+00 -4.638790E-06
       250 -6.297683E-04 -2.953841E+02 -5.867351E+00
       251  6.543465E+00  8.809730E+01  5.573348E-01
       252 -6.460493E-04  2.062197E+02  1.294289E+00
       253 -6.542540E+00  8.809783E+01  5.550440E-01
       254 -9.597723E-05 -2.678781E+02  1.552185E+00
       255  3.291470E-06 -2.432314E+00 -6.072734E-05
       256  8.448554E-07 -5.231571E+00  1.403768E+00
       257  7.240934E-06 -5.231633E+00 -2.667987E-05
       258 -6.528474E-07  6.166016E+00  2.392870E-05
       259 -6.920824E-06 -5.231632E+00 -2.695524E-05
       260  1.693383E-06 -5.231707E+00 -1.403780E+00
       261 -4.982012E-07 -4.668080E+00 -9.360839E-06

 displacements (vx,vy,vz) for set NALL and time  0.1000000E-01

         5  0.000000E+00  0.000000E+00  0.000000E+00
         6  0.000000E+00  0.000000E+00  0.000000E+00
         7  0.000000E+00  0.000000E+00  0.000000E+00
         8  0.000000E+00  0.000000E+00  0.000000E+00
        21  0.000000E+00  0.000000E+00  0.000000E+00
        22  0.000000E+00  0.000000E+00  0.000000E+00
        23  0.000000E+00  0.000000E+00  0.000000E+00
        24  0.000000E+00  0.000000E+00  0.000000E+00
        25  0.000000E+00  0.000000E+00  0.000000E+00
        26  0.000000E+00  0.000000E+00  0.000000E+00
        27  0.000000E+00  0.000000E+00  0.000000E+00
        28  0.000000E+00  0.000000E+00  0.000000E+00
        29  0.000000E+00  0.000000E+00  0.000000E+00
        30  0.000000E+00  0.000000E+00  0.000000E+00
        31  0.000000E+00  0.000000E+00  0.000000E+00
        32  0.000000E+00  0.000000E+00  0.000000E+00
        44 -1.412010E-04  1.622336E-03 -2.338568E-04
        45 -2.967238E-05  1.257182E-03 -3.773230E-04
        46  3.837335E-05  9.090995E-04 -4.323444E-04
        47 -5.567428E-05  3.675336E-04 -2.838491E-04
        48  5.572185E-05  3.675627E-04 -2.839469E-04
        49 -3.826278E-05  9.091300E-04 -4.325198E-04
        50  3.012244E-05  1.257165E-03 -3.774518E-04
        51  1.417461E-04  1.622162E-03 -2.339368E-04
        74  1.544440E-04  1.613901E-03  2.342736E-04
        75  3.677412E-05  1.251518E-03  3.774285E-04
        76 -4.163657E-05  9.121975E-04  4.325146E-04
        77  5.381715E-05  3.690240E-04  2.840375E-04
        89 -1.536849E-04  1.614088E-03  2.339777E-04
        90 -3.635255E-05  1.251497E-03  3.772221E-04
        91  4.176329E-05  9.121852E-04  4.323413E-04
        92 -5.377111E-05  3.689903E-04  2.839349E-04
        98  0.000000E+00  0.000000E+00  0.000000E+00
        99  0.000000E+00  0.000000E+00  0.000000E+00
       100  0.000000E+00  0.000000E+00  0.000000E+00
       101  0.000000E+00  0.000000E+00  0.000000E+00
       102  0.000000E+00  0.000000E+00  0.000000E+00
       124  3.531061E-06  1.475463E-03 -2.205215E-04
       125  3.617256E-07  1.774306E-03 -2.313134E-04
       126 -2.921252E-06  1.475485E-03 -2.204014E-04
       127  1.675605E-07  1.301132E-03 -4.165230E-04
       128 -2.603336E-06  9.602711E-04 -4.637663E-04
       129  1.028950E-07  8.898472E-04 -4.720904E-04
       130  2.766345E-06  9.602683E-04 -4.637020E-04
       131  1.120457E-08  3.753976E-04 -2.761232E-04
       153  1.215499E-04  1.917720E-03 -1.037598E-04
       154  3.828055E-06  1.692482E-03  3.074368E-07
       155 -1.260188E-04  1.913201E-03  1.043454E-04
       156  6.187285E-07  1.407482E-03 -4.191541E-07
       157 -2.432624E-05  7.914962E-04 -1.861221E-04
       158 -5.723054E-07  8.090733E-04 -6.590729E-08
       159  2.549617E-05  7.930719E-04  1.864793E-04
       160 -1.686952E-07  3.080418E-04 -2.463398E-08
       182  9.816020E-06  1.478003E-03  2.207841E-04
       183  4.124326E-07  1.773538E-03  2.311828E-04
       184 -9.066543E-06  1.478029E-03  2.206101E-04
       185  1.663772E-07  1.303375E-03  4.180812E-04
       186 -4.187662E-06  9.603208E-04  4.638362E-04
       187  9.672474E-08  8.900027E-04  4.728466E-04
       188  4.354005E-06  9.603286E-04  4.637561E-04
       189  1.051591E-08  3.751420E-04  2.762331E-04
       211  1.266984E-04  1.913297E-03  1.039579E-04
       212 -3.185286E-06  1.692405E-03  1.231168E-07
       213 -1.210150E-04  1.917558E-03 -1.039745E-04
       214 -2.702025E-07  1.407514E-03 -6.391436E-07
       215 -2.532375E-05  7.930433E-04  1.863402E-04
       216  7.746054E-07  8.090446E-04 -2.347481E-07
       217  2.449822E-05  7.915054E-04 -1.862717E-04
       218  2.261108E-07  3.080432E-04 -1.010006E-07
       250  3.058341E-07  1.915572E-03 -1.031858E-04
       251  7.099163E-07  1.210032E-03  2.108454E-07
       252  2.307081E-07  1.543579E-03  6.766015E-08
       253 -1.487161E-07  1.210088E-03  2.705976E-07
       254  3.368253E-07  1.918845E-03  1.031300E-04
       255  1.860275E-07  1.374483E-03  1.757321E-07
       256  8.883899E-08  7.833832E-04 -2.071531E-04
       257 -2.691230E-08  9.139692E-04  2.655948E-08
       258  7.412743E-08  8.133646E-04  6.952449E-08
       259  1.944515E-07  9.139793E-04  1.181426E-07
       260  8.405150E-08  7.826658E-04  2.072507E-04
       261  2.751544E-08  3.486943E-04  1.447857E-08

 forces (fx,fy,fz) for set NALL and time  0.1000000E-01

         5 -1.635935E+00  3.328108E-01  9.275135E-01
         6  1.635516E+00  3.331168E-01  9.280452E-01
         7 -1.680872E+00  3.385424E-01 -9.282800E-01
         8  1.680545E+00  3.386238E-01 -9.287925E-01
        21  9.885737E-01 -1.600786E+00  8.949504E+00
        22 -9.824001E-04  6.991354E-01  1.417803E+00
        23 -9.871611E-01 -1.600002E+00  8.947667E+00
        24  1.183860E+00 -5.834433E+00  4.716932E+00
        25 -5.237187E-02  2.382226E+00 -7.725490E-03
        26 -1.129379E+00 -5.852801E+00 -4.711924E+00
        27  1.023819E+00 -1.602199E+00 -8.957099E+00
        28 -8.003340E-04  7.413123E-01 -1.402260E+00
        29 -1.022424E+00 -1.601645E+00 -8.955748E+00
        30  1.128967E+00 -5.853489E+00 -4.709243E+00
        31  5.129282E-02  2.382443E+00 -8.320649E-03
        32 -1.183921E+00 -5.833915E+00  4.719323E+00
        44 -5.906683E+00 -1.473606E+01 -7.521277E-01
        45  6.108178E-06  5.208353E-01 -1.306833E-01
        46 -4.673657E-06 -1.320401E+00  3.969495E-01
        47  1.646705E-06  9.996432E-01 -4.628157E-01
        48 -1.798858E-06  9.996421E-01 -4.628162E-01
        49  4.184989E-06 -1.320402E+00  3.969497E-01
        50 -4.551282E-06  5.208373E-01 -1.306830E-01
        51  5.907400E+00 -1.473528E+01 -7.495764E-01
        74  6.231478E+00 -1.481146E+01  7.458291E-01
        75 -5.479059E-07  5.209086E-01  1.306595E-01
        76  1.404737E-06 -1.320454E+00 -3.969427E-01
        77 -3.448412E-06  9.996540E-01  4.628125E-01
        89 -6.230587E+00 -1.481184E+01  7.480794E-01
        90  2.965423E-06  5.209054E-01  1.306595E-01
        91 -1.817183E-06 -1.320453E+00 -3.969428E-01
        92  2.948168E-06  9.996559E-01  4.628125E-01
        98 -2.500649E-05 -1.293111E+01  8.230856E+00
        99 -4.543312E-02  3.962491E+00  3.361526E-03
       100  5.771116E-05  5.352455E+00  2.672732E-03
       101  4.635869E-02  3.962002E+00  1.143202E-03
       102 -2.183089E-04 -1.300861E+01 -8.239450E+00
       124 -6.115845E+00 -1.735178E+01  4.627363E-01
       125  1.959262E-03 -3.070307E+01 -1.393184E+00
       126  6.113338E+00 -1.735339E+01  4.656695E-01
       127 -3.768225E-07  1.041671E+00 -2.613589E-01
       128 -3.909540E-06  2.240633E+00 -8.016472E-01
       129  1.694823E-07 -2.640803E+00  7.938964E-01
       130  4.303048E-06  2.240632E+00 -8.016464E-01
       131 -4.536217E-07  1.999285E+00 -9.256298E-01
       153  4.401105E+00  5.129584E+01  1.169736E+00
       154  4.430130E-01 -3.259182E+01 -5.886803E-03
       155 -4.856138E+00  5.142795E+01 -1.162385E+00
       156  1.002925E-05  1.041737E+00  2.122523E-05
       157  6.521873E-06  2.240640E+00 -6.012271E-01
       158 -4.970726E-06 -2.640853E+00 -9.928962E-06
       159  1.166717E-07  2.240694E+00  6.012297E-01
       160  1.038850E-06  1.999300E+00  2.881450E-06
       182 -6.346837E+00 -1.727855E+01 -4.539366E-01
       183  2.175530E-03 -3.117953E+01  1.382947E+00
       184  6.344272E+00 -1.727989E+01 -4.570034E-01
       185 -1.106211E-06  1.069527E+00  2.613140E-01
       186 -2.162751E-06  2.268408E+00  8.016245E-01
       187  4.111572E-07 -2.613210E+00 -7.938863E-01
       188  2.468966E-06  2.268406E+00  8.016241E-01
       189 -3.433766E-07  2.027017E+00  9.256210E-01
       211  4.857156E+00  5.143274E+01 -1.168852E+00
       212 -4.436174E-01 -3.259253E+01 -1.512107E-03
       213 -4.401483E+00  5.129064E+01  1.165909E+00
       214 -7.951969E-06  1.041737E+00  1.967579E-05
       215  1.304575E-06  2.240692E+00  6.012298E-01
       216  3.977551E-06 -2.640853E+00 -9.212271E-06
       217 -5.347826E-06  2.240641E+00 -6.012273E-01
       218 -5.156499E-07  1.999300E+00  3.973607E-06
       250  2.651424E-04  1.050747E+02  2.301441E+00
       251  4.034304E-01 -4.763021E+01  1.622587E-02
       252 -2.617682E-03 -6.991821E+01 -8.292150E-03
       253 -4.024389E-01 -4.762856E+01  1.598705E-02
       254  1.187804E-03  1.057834E+02 -2.317781E+00
       255 -2.819525E-06  2.083480E+00  5.200271E-05
       256 -7.237443E-07  4.481281E+00 -1.202446E+00
       257 -6.205322E-06  4.481333E+00  2.284549E-05
       258  5.593057E-07 -5.281711E+00 -2.048560E-05
       259  5.931011E-06  4.481333E+00  2.308132E-05
       260 -1.450579E-06  4.481397E+00  1.202456E+00
       261  4.267363E-07  3.998604E+00  8.017816E-06

 displacements (vx,vy,vz) for set NALL and time  0.1500000E-01

         5  0.000000E+00  0.000000E+00  0.000000E+00
         6  0.000000E+00  0.000000E+00  0.000000E+00
         7  0.000000E+00  0.000000E+00  0.000000E+00
         8  0.000000E+00  0.000000E+00  0.000000E+00
        21  0.000000E+00  0.000000E+00  0.000000E+00
        22  0.000000E+00  0.000000E+00  0.000000E+00
        23  0.000000E+00  0.000000E+00  0.000000E+00
        24  0.000000E+00  0.000000E+00  0.000000E+00
        25  0.000000E+00  0.000000E+00  0.000000E+00
        26  0.000000E+00  0.000000E+00  0.000000E+00
        27  0.000000E+00  0.000000E+00  0.000000E+00
        28  0.000000E+00  0.000000E+00  0.000000E+00
        29  0.000000E+00  0.000000E+00  0.000000E+00
        30  0.000000E+00  0.000000E+00  0.000000E+00
        31  0.000000E+00  0.000000E+00  0.000000E+00
        32  0.000000E+00  0.000000E+00  0.000000E+00
        44  1.144218E-04 -1.280344E-03  1.853751E-04
        45  2.538685E-05 -9.930354E-04  2.984280E-04
        46 -3.116106E-05 -7.217384E-04  3.426147E-04
        47  4.367813E-05 -2.918890E-04  2.249666E-04
        48 -4.365304E-05 -2.918695E-04  2.248797E-04
        49  3.113251E-05 -7.217034E-04  3.424999E-04
        50 -2.505607E-05 -9.930943E-04  2.984381E-04
        51 -1.142614E-04 -1.280507E-03  1.854144E-04
        74 -1.189579E-04 -1.275897E-03 -1.853591E-04
        75 -2.787310E-05 -9.903077E-04 -2.984509E-04
        76  3.291754E-05 -7.234895E-04 -3.425182E-04
        77 -4.283978E-05 -2.926816E-04 -2.248939E-04
        89  1.193054E-04 -1.275645E-03 -1.853779E-04
        90  2.814891E-05 -9.902687E-04 -2.984397E-04
        91 -3.290973E-05 -7.235232E-04 -3.426381E-04
        92  4.285823E-05 -2.927000E-04 -2.249743E-04
        98  0.000000E+00  0.000000E+00  0.000000E+00
        99  0.000000E+00  0.000000E+00  0.000000E+00
       100  0.000000E+00  0.000000E+00  0.000000E+00
       101  0.000000E+00  0.000000E+00  0.000000E+00
       102  0.000000E+00  0.000000E+00  0.000000E+00
       124 -3.187461E-06 -1.169571E-03  1.744768E-04
       125  2.992336E-07 -1.403598E-03  1.830138E-04
       126  3.527474E-06 -1.169620E-03  1.746632E-04
       127  3.380250E-08 -1.030646E-03  3.302990E-04
       128  2.438305E-06 -7.605102E-04  3.671763E-04
       129  9.874810E-08 -7.048771E-04  3.738206E-04
       130 -2.342547E-06 -7.605033E-04  3.671838E-04
       131 -2.891297E-09 -2.975506E-04  2.187575E-04
       153 -9.632348E-05 -1.515788E-03  8.235130E-05
       154 -7.843139E-07 -1.337852E-03 -1.141631E-07
       155  9.829294E-05 -1.516305E-03 -8.222334E-05
       156  1.655875E-07 -1.114903E-03  3.521534E-07
       157  1.921551E-05 -6.274904E-04  1.475362E-04
       158  2.273220E-08 -6.406115E-04  1.541183E-07
       159 -1.952823E-05 -6.276843E-04 -1.475352E-04
       160  1.254165E-08 -2.442562E-04  3.452227E-08
       182 -2.926605E-06 -1.171351E-03 -1.745979E-04
       183  2.589160E-07 -1.401999E-03 -1.830329E-04
       184  3.311900E-06 -1.171330E-03 -1.747255E-04
       185  5.893795E-08 -1.030966E-03 -3.309443E-04
       186  2.657203E-06 -7.601703E-04 -3.671387E-04
       187  7.084958E-08 -7.047756E-04 -3.740760E-04
       188 -2.570276E-06 -7.601667E-04 -3.671683E-04
       189 -1.103638E-09 -2.975318E-04 -2.188096E-04
       211 -9.805670E-05 -1.516102E-03 -8.240282E-05
       212  1.049211E-06 -1.337833E-03  2.822207E-08
       213  9.645176E-05 -1.515934E-03  8.226683E-05
       214 -4.460053E-08 -1.114890E-03  2.729614E-07
       215  1.960887E-05 -6.277196E-04 -1.475833E-04
       216  1.010306E-07 -6.406231E-04  6.317386E-08
       217 -1.915067E-05 -6.274650E-04  1.474763E-04
       218  1.417159E-08 -2.442570E-04  4.007617E-09
       250  1.727587E-07 -1.517306E-03  8.171882E-05
       251  9.312926E-07 -9.580105E-04  5.927495E-10
       252 -3.231964E-09 -1.224181E-03 -1.728625E-08
       253 -7.785612E-07 -9.580149E-04 -1.478459E-07
       254  1.449869E-07 -1.515627E-03 -8.160559E-05
       255  9.257853E-08 -1.088327E-03 -2.847903E-08
       256  5.397413E-08 -6.207182E-04  1.640496E-04
       257 -4.352575E-08 -7.239371E-04 -4.101978E-08
       258  1.727254E-08 -6.445408E-04 -4.448901E-09
       259  1.128145E-07 -7.239329E-04  2.302852E-08
       260  4.140054E-08 -6.208818E-04 -1.640684E-04
       261  2.178196E-08 -2.761535E-04  1.821363E-09

 forces (fx,fy,fz) for set NALL and time  0.1500000E-01

         5  1.309214E+00 -2.722639E-01 -7.356330E-01
         6 -1.309121E+00 -2.722983E-01 -7.344123E-01
         7  1.329699E+00 -2.922227E-01  7.354719E-01
         8 -1.329889E+00 -2.921133E-01  7.343782E-01
        21 -8.092055E-01  1.284655E+00 -7.093696E+00
        22 -1.445469E-03 -5.721763E-01 -1.120379E+00
        23  8.105543E-01  1.285487E+00 -7.095248E+00
        24 -9.381777E-01  4.630033E+00 -3.739571E+00
        25  1.194160E-02 -1.916460E+00  4.596253E-03
        26  9.239283E-01  4.659477E+00  3.734532E+00
        27 -8.374446E-01  1.297892E+00  7.097459E+00
        28 -1.130320E-03 -5.938178E-01  1.112087E+00
        29  8.386720E-01  1.298619E+00  7.098512E+00
        30 -9.239384E-01  4.658615E+00  3.736795E+00
        31 -1.278778E-02 -1.916313E+00  3.683838E-03
        32  9.387187E-01  4.630759E+00 -3.737814E+00
        44  4.751451E+00  1.177687E+01  5.941454E-01
        45 -4.853750E-06 -4.142314E-01  1.039353E-01
        46  3.723405E-06  1.050144E+00 -3.157028E-01
        47 -1.326205E-06 -7.950387E-01  3.680877E-01
        48  1.447230E-06 -7.950378E-01  3.680881E-01
        49 -3.334836E-06  1.050145E+00 -3.157029E-01
        50  3.615611E-06 -4.142330E-01  1.039350E-01
        51 -4.751216E+00  1.177785E+01  5.990525E-01
        74 -4.900276E+00  1.192236E+01 -5.980737E-01
        75  4.250125E-07 -4.142896E-01 -1.039163E-01
        76 -1.119722E-06  1.050186E+00  3.156973E-01
        77  2.759938E-06 -7.950473E-01 -3.680852E-01
        89  4.901445E+00  1.192101E+01 -5.929924E-01
        90 -2.347623E-06 -4.142871E-01 -1.039163E-01
        91  1.447671E-06  1.050186E+00  3.156974E-01
        92 -2.362070E-06 -7.950488E-01 -3.680852E-01
        98 -5.943429E-04  1.023957E+01 -6.513756E+00
        99  7.491888E-03 -3.119593E+00 -1.018310E-03
       100  1.031144E-03 -4.212539E+00 -3.494815E-05
       101 -7.648070E-03 -3.119427E+00 -2.077124E-03
       102 -9.940147E-05  1.025170E+01  6.517245E+00
       124  5.011086E+00  1.360361E+01 -3.725834E-01
       125  3.263882E-03  2.450638E+01  1.101428E+00
       126 -5.013581E+00  1.360035E+01 -3.655482E-01
       127  2.997904E-07 -8.284632E-01  2.078644E-01
       128  3.118465E-06 -1.782026E+00  6.375679E-01
       129 -1.348724E-07  2.100289E+00 -6.314035E-01
       130 -3.431331E-06 -1.782025E+00  6.375673E-01
       131  3.607885E-07 -1.590077E+00  7.361742E-01
       153 -3.490623E+00 -4.071023E+01 -9.244628E-01
       154 -1.039997E-01  2.605411E+01 -4.358124E-03
       155  3.613644E+00 -4.092304E+01  9.345173E-01
       156 -7.967480E-06 -8.285152E-01 -1.686819E-05
       157 -5.195826E-06 -1.782031E+00  4.781694E-01
       158  3.952557E-06  2.100329E+00  7.888794E-06
       159 -8.861884E-08 -1.782073E+00 -4.781714E-01
       160 -8.318026E-07 -1.590088E+00 -2.291784E-06
       182  5.213307E+00  1.348963E+01  3.681467E-01
       183  2.786060E-03  2.469541E+01 -1.100334E+00
       184 -5.216365E+00  1.348717E+01  3.622084E-01
       185  8.798900E-07 -8.300441E-01 -2.078286E-01
       186  1.725596E-06 -1.783542E+00 -6.375498E-01
       187 -3.270818E-07  2.098917E+00  6.313955E-01
       188 -1.969038E-06 -1.783541E+00 -6.375496E-01
       189  2.731078E-07 -1.591559E+00 -7.361671E-01
       211 -3.613632E+00 -4.091519E+01  9.245587E-01
       212  1.026755E-01  2.605410E+01  5.008890E-03
       213  3.489766E+00 -4.071798E+01 -9.318132E-01
       214  6.315567E-06 -8.285157E-01 -1.563596E-05
       215 -1.041631E-06 -1.782072E+00 -4.781715E-01
       216 -3.162822E-06  2.100329E+00  7.318858E-06
       217  4.262181E-06 -1.782032E+00  4.781695E-01
       218  4.157192E-07 -1.590088E+00 -3.160427E-06
       250  1.809092E-03 -8.330629E+01 -1.824852E+00
       251 -5.952333E-02  3.759100E+01 -3.451551E-03
       252 -4.584456E-03  5.532205E+01 -3.363817E-04
       253  6.251405E-02  3.759017E+01 -8.933649E-03
       254  2.858338E-04 -8.341058E+01  1.837553E+00
       255  2.242623E-06 -1.657036E+00 -4.133735E-05
       256  5.757094E-07 -3.564062E+00  9.563318E-01
       257  4.939273E-06 -3.564104E+00 -1.815823E-05
       258 -4.449872E-07  4.200662E+00  1.627675E-05
       259 -4.720907E-06 -3.564104E+00 -1.834572E-05
       260  1.153777E-06 -3.564154E+00 -9.563400E-01
       261 -3.393657E-07 -3.180180E+00 -6.376004E-06

 displacements (vx,vy,vz) for set NALL and time  0.2000000E-01

         5  0.000000E+00  0.000000E+00  0.000000E+00
         6  0.000000E+00  0.000000E+00  0.000000E+00
         7  0.000000E+00  0.000000E+00  0.000000E+00
         8  0.000000E+00  0.000000E+00  0.000000E+00
        21  0.000000E+00  0.000000E+00  0.000000E+00
        22  0.000000E+00  0.000000E+00  0.000000E+00
        23  0.000000E+00  0.000000E+00  0.000000E+00
        24  0.000000E+00  0.000000E+00  0.000000E+00
        25  0.000000E+00  0.000000E+00  0.000000E+00
        26  0.000000E+00  0.000000E+00  0.000000E+00
        27  0.000000E+00  0.000000E+00  0.000000E+00
        28  0.000000E+00  0.000000E+00  0.000000E+00
        29  0.000000E+00  0.000000E+00  0.000000E+00
        30  0.000000E+00  0.000000E+00  0.000000E+00
        31  0.000000E+00  0.000000E+00  0.000000E+00
        32  0.000000E+00  0.000000E+00  0.000000E+00
        44 -9.032693E-05  9.928911E-04 -1.439116E-04
        45 -1.995748E-05  7.702934E-04 -2.319125E-04
        46  2.453824E-05  5.607069E-04 -2.657285E-04
        47 -3.368405E-05  2.268937E-04 -1.746805E-04
        48  3.369278E-05  2.268981E-04 -1.746947E-04
        49 -2.452172E-05  5.607148E-04 -2.657551E-04
        50  2.003180E-05  7.702873E-04 -2.319347E-04
        51  9.038980E-05  9.928872E-04 -1.439248E-04
        74  9.448298E-05  9.890893E-04  1.439334E-04
        75  2.234452E-05  7.680137E-04  2.319565E-04
        76 -2.596589E-05  5.621436E-04  2.657526E-04
        77  3.300728E-05  2.275625E-04  1.746947E-04
        89 -9.438174E-05  9.891654E-04  1.439378E-04
        90 -2.227157E-05  7.679982E-04  2.319330E-04
        91  2.598348E-05  5.621530E-04  2.657213E-04
        92 -3.299759E-05  2.275567E-04  1.746747E-04
        98  0.000000E+00  0.000000E+00  0.000000E+00
        99  0.000000E+00  0.000000E+00  0.000000E+00
       100  0.000000E+00  0.000000E+00  0.000000E+00
       101  0.000000E+00  0.000000E+00  0.000000E+00
       102  0.000000E+00  0.000000E+00  0.000000E+00
       124  3.053043E-06  9.084983E-04 -1.356415E-04
       125  5.485160E-08  1.089225E-03 -1.423157E-04
       126 -2.968672E-06  9.084885E-04 -1.356154E-04
       127  2.418926E-08  8.004482E-04 -2.562253E-04
       128 -1.952353E-06  5.901447E-04 -2.850399E-04
       129  1.877133E-08  5.469181E-04 -2.903062E-04
       130  1.979752E-06  5.901429E-04 -2.850317E-04
       131  2.192912E-09  2.308820E-04 -1.697636E-04
       153  7.605966E-05  1.178668E-03 -6.392014E-05
       154  8.938085E-07  1.041862E-03  7.843853E-08
       155 -7.744392E-05  1.178770E-03  6.396780E-05
       156 -3.612061E-08  8.649902E-04 -2.370454E-07
       157 -1.517149E-05  4.874912E-04 -1.143888E-04
       158  2.711858E-08  4.980406E-04 -8.350470E-08
       159  1.553633E-05  4.877040E-04  1.144484E-04
       160  1.210218E-09  1.895374E-04 -1.184840E-08
       182  3.145823E-06  9.098580E-04  1.356625E-04
       183  6.844823E-08  1.087898E-03  1.422669E-04
       184 -3.031181E-06  9.098887E-04  1.356509E-04
       185  2.736259E-08  8.007483E-04  2.567363E-04
       186 -2.181715E-06  5.898444E-04  2.850126E-04
       187  1.659268E-08  5.467755E-04  2.905048E-04
       188  2.207853E-06  5.898504E-04  2.850004E-04
       189  2.197516E-09  2.308442E-04  1.697970E-04
       211  7.754141E-05  1.178801E-03  6.390821E-05
       212 -8.006877E-07  1.041844E-03  4.982232E-08
       213 -7.599271E-05  1.178652E-03 -6.393715E-05
       214  9.546918E-08  8.650043E-04 -2.697453E-07
       215 -1.551084E-05  4.877024E-04  1.144298E-04
       216  4.861573E-09  4.980296E-04 -1.105936E-07
       217  1.519821E-05  4.874908E-04 -1.144157E-04
       218  8.923177E-09  1.895386E-04 -2.624149E-08
       250  5.033710E-08  1.175557E-03 -6.352490E-05
       251 -6.109929E-07  7.438163E-04  5.808780E-08