    1C
    1UUSER                                                              
    1UDATE              15.july.2018                                    
    1UTIME              19:10:13                                        
    1UHOST                                                              
    1UPGM               CalculiX                                        
    1UVERSION           Version 2.13                             
    1UCOMPILETIME       jue jun 14 00:40:39 CEST 2018                    
    1UDIR                                                               
    1UDBN                                                               
    1UMAT    1EL                                                        
    2C                           201                                     1
 -1         1 0.00000E+00 0.00000E+00 0.00000E+00
 -1         2 1.00000E+00 0.00000E+00 0.00000E+00
 -1         3 1.00000E+00 1.00000E+00 0.00000E+00
 -1         4 0.00000E+00 1.00000E+00 0.00000E+00
 -1         9 2.50000E-01 0.00000E+00 0.00000E+00
 -1        10 5.00000E-01 0.00000E+00 0.00000E+00
 -1        11 7.50000E-01 0.00000E+00 0.00000E+00
 -1        12 1.00000E+00 2.50000E-01 0.00000E+00
 -1        13 1.00000E+00 5.00000E-01 0.00000E+00
 -1        14 1.00000E+00 7.50000E-01 0.00000E+00
 -1        15 7.50000E-01 1.00000E+00 0.00000E+00
 -1        16 5.00000E-01 1.00000E+00 0.00000E+00
 -1        17 2.50000E-01 1.00000E+00 0.00000E+00
 -1        18 0.00000E+00 7.50000E-01 0.00000E+00
 -1        19 0.00000E+00 5.00000E-01 0.00000E+00
 -1        20 0.00000E+00 2.50000E-01 0.00000E+00
 -1        33 1.00000E+00 0.00000E+00 5.00000E-01
 -1        34 1.00000E+00 0.00000E+00 1.00000E+00
 -1        35 1.00000E+00 0.00000E+00 1.50000E+00
 -1        36 1.00000E+00 0.00000E+00 2.00000E+00
 -1        37 1.00000E+00 0.00000E+00 2.50000E+00
 -1        38 1.00000E+00 0.00000E+00 3.00000E+00
 -1        39 1.00000E+00 0.00000E+00 3.50000E+00
 -1        40 1.00000E+00 0.00000E+00 4.00000E+00
 -1        41 1.00000E+00 0.00000E+00 4.50000E+00
 -1        42 1.00000E+00 0.00000E+00 5.00000E+00
 -1        43 1.00000E+00 0.00000E+00 5.50000E+00
 -1        44 1.00000E+00 0.00000E+00 6.00000E+00
 -1        51 0.00000E+00 0.00000E+00 6.00000E+00
 -1        52 0.00000E+00 0.00000E+00 5.50000E+00
 -1        53 0.00000E+00 0.00000E+00 5.00000E+00
 -1        54 0.00000E+00 0.00000E+00 4.50000E+00
 -1        55 0.00000E+00 0.00000E+00 4.00000E+00
 -1        56 0.00000E+00 0.00000E+00 3.50000E+00
 -1        57 0.00000E+00 0.00000E+00 3.00000E+00
 -1        58 0.00000E+00 0.00000E+00 2.50000E+00
 -1        59 0.00000E+00 0.00000E+00 2.00000E+00
 -1        60 0.00000E+00 0.00000E+00 1.50000E+00
 -1        61 0.00000E+00 0.00000E+00 1.00000E+00
 -1        62 0.00000E+00 0.00000E+00 5.00000E-01
 -1        63 1.00000E+00 1.00000E+00 5.00000E-01
 -1        64 1.00000E+00 1.00000E+00 1.00000E+00
 -1        65 1.00000E+00 1.00000E+00 1.50000E+00
 -1        66 1.00000E+00 1.00000E+00 2.00000E+00
 -1        67 1.00000E+00 1.00000E+00 2.50000E+00
 -1        68 1.00000E+00 1.00000E+00 3.00000E+00
 -1        69 1.00000E+00 1.00000E+00 3.50000E+00
 -1        70 1.00000E+00 1.00000E+00 4.00000E+00
 -1        71 1.00000E+00 1.00000E+00 4.50000E+00
 -1        72 1.00000E+00 1.00000E+00 5.00000E+00
 -1        73 1.00000E+00 1.00000E+00 5.50000E+00
 -1        74 1.00000E+00 1.00000E+00 6.00000E+00
 -1        78 0.00000E+00 1.00000E+00 5.00000E-01
 -1        79 0.00000E+00 1.00000E+00 1.00000E+00
 -1        80 0.00000E+00 1.00000E+00 1.50000E+00
 -1        81 0.00000E+00 1.00000E+00 2.00000E+00
 -1        82 0.00000E+00 1.00000E+00 2.50000E+00
 -1        83 0.00000E+00 1.00000E+00 3.00000E+00
 -1        84 0.00000E+00 1.00000E+00 3.50000E+00
 -1        85 0.00000E+00 1.00000E+00 4.00000E+00
 -1        86 0.00000E+00 1.00000E+00 4.50000E+00
 -1        87 0.00000E+00 1.00000E+00 5.00000E+00
 -1        88 0.00000E+00 1.00000E+00 5.50000E+00
 -1        89 0.00000E+00 1.00000E+00 6.00000E+00
 -1        93 5.00000E-01 2.50000E-01 0.00000E+00
 -1        94 2.50000E-01 5.00000E-01 0.00000E+00
 -1        95 5.00000E-01 5.00000E-01 0.00000E+00
 -1        96 7.50000E-01 5.00000E-01 0.00000E+00
 -1        97 5.00000E-01 7.50000E-01 0.00000E+00
 -1       103 5.00000E-01 0.00000E+00 5.00000E-01
 -1       104 2.50000E-01 0.00000E+00 1.00000E+00
 -1       105 5.00000E-01 0.00000E+00 1.00000E+00
 -1       106 7.50000E-01 0.00000E+00 1.00000E+00
 -1       107 5.00000E-01 0.00000E+00 1.50000E+00
 -1       108 2.50000E-01 0.00000E+00 2.00000E+00
 -1       109 5.00000E-01 0.00000E+00 2.00000E+00
 -1       110 7.50000E-01 0.00000E+00 2.00000E+00
 -1       111 5.00000E-01 0.00000E+00 2.50000E+00
 -1       112 2.50000E-01 0.00000E+00 3.00000E+00
 -1       113 5.00000E-01 0.00000E+00 3.00000E+00
 -1       114 7.50000E-01 0.00000E+00 3.00000E+00
 -1       115 5.00000E-01 0.00000E+00 3.50000E+00
 -1       116 2.50000E-01 0.00000E+00 4.00000E+00
 -1       117 5.00000E-01 0.00000E+00 4.00000E+00
 -1       118 7.50000E-01 0.00000E+00 4.00000E+00
 -1       119 5.00000E-01 0.00000E+00 4.50000E+00
 -1       120 2.50000E-01 0.00000E+00 5.00000E+00
 -1       121 5.00000E-01 0.00000E+00 5.00000E+00
 -1       122 7.50000E-01 0.00000E+00 5.00000E+00
 -1       123 5.00000E-01 0.00000E+00 5.50000E+00
 -1       124 2.50000E-01 0.00000E+00 6.00000E+00
 -1       125 5.00000E-01 0.00000E+00 6.00000E+00
 -1       126 7.50000E-01 0.00000E+00 6.00000E+00
 -1       132 1.00000E+00 5.00000E-01 5.00000E-01
 -1       133 1.00000E+00 2.50000E-01 1.00000E+00
 -1       134 1.00000E+00 5.00000E-01 1.00000E+00
 -1       135 1.00000E+00 7.50000E-01 1.00000E+00
 -1       136 1.00000E+00 5.00000E-01 1.50000E+00
 -1       137 1.00000E+00 2.50000E-01 2.00000E+00
 -1       138 1.00000E+00 5.00000E-01 2.00000E+00
 -1       139 1.00000E+00 7.50000E-01 2.00000E+00
 -1       140 1.00000E+00 5.00000E-01 2.50000E+00
 -1       141 1.00000E+00 2.50000E-01 3.00000E+00
 -1       142 1.00000E+00 5.00000E-01 3.00000E+00
 -1       143 1.00000E+00 7.50000E-01 3.00000E+00
 -1       144 1.00000E+00 5.00000E-01 3.50000E+00
 -1       145 1.00000E+00 2.50000E-01 4.00000E+00
 -1       146 1.00000E+00 5.00000E-01 4.00000E+00
 -1       147 1.00000E+00 7.50000E-01 4.00000E+00
 -1       148 1.00000E+00 5.00000E-01 4.50000E+00
 -1       149 1.00000E+00 2.50000E-01 5.00000E+00
 -1       150 1.00000E+00 5.00000E-01 5.00000E+00
 -1       151 1.00000E+00 7.50000E-01 5.00000E+00
 -1       152 1.00000E+00 5.00000E-01 5.50000E+00
 -1       153 1.00000E+00 2.50000E-01 6.00000E+00
 -1       154 1.00000E+00 5.00000E-01 6.00000E+00
 -1       155 1.00000E+00 7.50000E-01 6.00000E+00
 -1       161 5.00000E-01 1.00000E+00 5.00000E-01
 -1       162 7.50000E-01 1.00000E+00 1.00000E+00
 -1       163 5.00000E-01 1.00000E+00 1.00000E+00
 -1       164 2.50000E-01 1.00000E+00 1.00000E+00
 -1       165 5.00000E-01 1.00000E+00 1.50000E+00
 -1       166 7.50000E-01 1.00000E+00 2.00000E+00
 -1       167 5.00000E-01 1.00000E+00 2.00000E+00
 -1       168 2.50000E-01 1.00000E+00 2.00000E+00
 -1       169 5.00000E-01 1.00000E+00 2.50000E+00
 -1       170 7.50000E-01 1.00000E+00 3.00000E+00
 -1       171 5.00000E-01 1.00000E+00 3.00000E+00
 -1       172 2.50000E-01 1.00000E+00 3.00000E+00
 -1       173 5.00000E-01 1.00000E+00 3.50000E+00
 -1       174 7.50000E-01 1.00000E+00 4.00000E+00
 -1       175 5.00000E-01 1.00000E+00 4.00000E+00
 -1       176 2.50000E-01 1.00000E+00 4.00000E+00
 -1       177 5.00000E-01 1.00000E+00 4.50000E+00
 -1       178 7.50000E-01 1.00000E+00 5.00000E+00
 -1       179 5.00000E-01 1.00000E+00 5.00000E+00
 -1       180 2.50000E-01 1.00000E+00 5.00000E+00
 -1       181 5.00000E-01 1.00000E+00 5.50000E+00
 -1       182 7.50000E-01 1.00000E+00 6.00000E+00
 -1       183 5.00000E-01 1.00000E+00 6.00000E+00
 -1       184 2.50000E-01 1.00000E+00 6.00000E+00
 -1       190 0.00000E+00 5.00000E-01 5.00000E-01
 -1       191 0.00000E+00 7.50000E-01 1.00000E+00
 -1       192 0.00000E+00 5.00000E-01 1.00000E+00
 -1       193 0.00000E+00 2.50000E-01 1.00000E+00
 -1       194 0.00000E+00 5.00000E-01 1.50000E+00
 -1       195 0.00000E+00 7.50000E-01 2.00000E+00
 -1       196 0.00000E+00 5.00000E-01 2.00000E+00
 -1       197 0.00000E+00 2.50000E-01 2.00000E+00
 -1       198 0.00000E+00 5.00000E-01 2.50000E+00
 -1       199 0.00000E+00 7.50000E-01 3.00000E+00
 -1       200 0.00000E+00 5.00000E-01 3.00000E+00
 -1       201 0.00000E+00 2.50000E-01 3.00000E+00
 -1       202 0.00000E+00 5.00000E-01 3.50000E+00
 -1       203 0.00000E+00 7.50000E-01 4.00000E+00
 -1       204 0.00000E+00 5.00000E-01 4.00000E+00
 -1       205 0.00000E+00 2.50000E-01 4.00000E+00
 -1       206 0.00000E+00 5.00000E-01 4.50000E+00
 -1       207 0.00000E+00 7.50000E-01 5.00000E+00
 -1       208 0.00000E+00 5.00000E-01 5.00000E+00
 -1       209 0.00000E+00 2.50000E-01 5.00000E+00
 -1       210 0.00000E+00 5.00000E-01 5.50000E+00
 -1       211 0.00000E+00 7.50000E-01 6.00000E+00
 -1       212 0.00000E+00 5.00000E-01 6.00000E+00
 -1       213 0.00000E+00 2.50000E-01 6.00000E+00
 -1       219 5.00000E-01 5.00000E-01 5.00000E-01
 -1       220 5.00000E-01 2.50000E-01 1.00000E+00
 -1       221 2.50000E-01 5.00000E-01 1.00000E+00
 -1       222 5.00000E-01 5.00000E-01 1.00000E+00
 -1       223 7.50000E-01 5.00000E-01 1.00000E+00
 -1       224 5.00000E-01 7.50000E-01 1.00000E+00
 -1       225 5.00000E-01 5.00000E-01 1.50000E+00
 -1       226 5.00000E-01 2.50000E-01 2.00000E+00
 -1       227 2.50000E-01 5.00000E-01 2.00000E+00
 -1       228 5.00000E-01 5.00000E-01 2.00000E+00
 -1       229 7.50000E-01 5.00000E-01 2.00000E+00
 -1       230 5.00000E-01 7.50000E-01 2.00000E+00
 -1       231 5.00000E-01 5.00000E-01 2.50000E+00
 -1       232 5.00000E-01 2.50000E-01 3.00000E+00
 -1       233 2.50000E-01 5.00000E-01 3.00000E+00
 -1       234 5.00000E-01 5.00000E-01 3.00000E+00
 -1       235 7.50000E-01 5.00000E-01 3.00000E+00
 -1       236 5.00000E-01 7.50000E-01 3.00000E+00
 -1       237 5.00000E-01 5.00000E-01 3.50000E+00
 -1       238 5.00000E-01 2.50000E-01 4.00000E+00
 -1       239 2.50000E-01 5.00000E-01 4.00000E+00
 -1       240 5.00000E-01 5.00000E-01 4.00000E+00
 -1       241 7.50000E-01 5.00000E-01 4.00000E+00
 -1       242 5.00000E-01 7.50000E-01 4.00000E+00
 -1       243 5.00000E-01 5.00000E-01 4.50000E+00
 -1       244 5.00000E-01 2.50000E-01 5.00000E+00
 -1       245 2.50000E-01 5.00000E-01 5.00000E+00
 -1       246 5.00000E-01 5.00000E-01 5.00000E+00
 -1       247 7.50000E-01 5.00000E-01 5.00000E+00
 -1       248 5.00000E-01 7.50000E-01 5.00000E+00
 -1       249 5.00000E-01 5.00000E-01 5.50000E+00
 -1       250 5.00000E-01 2.50000E-01 6.00000E+00
 -1       251 2.50000E-01 5.00000E-01 6.00000E+00
 -1       252 5.00000E-01 5.00000E-01 6.00000E+00
 -1       253 7.50000E-01 5.00000E-01 6.00000E+00
 -1       254 5.00000E-01 7.50000E-01 6.00000E+00
 -3
    3C                            24                                     1
 -1         1    4    0    1
 -2         1        10        95        19        61       105       222       192         9        93
 -2        94        20        62       103       219       190       104       220       221       193
 -1         2    4    0    1
 -2        10         2        13        95       105        34       134       222        11        12
 -2        96        93       103        33       132       219       106       133       223       220
 -1         3    4    0    1
 -2        19        95        16         4       192       222       163        79        94        97
 -2        17        18       190       219       161        78       221       224       164       191
 -1         4    4    0    1
 -2        95        13         3        16       222       134        64       163        96        14
 -2        15        97       219       132        63       161       223       135       162       224
 -1         5    4    0    1
 -2        61       105       222       192        59       109       228       196       104       220
 -2       221       193        60       107       225       194       108       226       227       197
 -1         6    4    0    1
 -2       105        34       134       222       109        36       138       228       106       133
 -2       223       220       107        35       136       225       110       137       229       226
 -1         7    4    0    1
 -2       192       222       163        79       196       228       167        81       221       224
 -2       164       191       194       225       165        80       227       230       168       195
 -1         8    4    0    1
 -2       222       134        64       163       228       138        66       167       223       135
 -2       162       224       225       136        65       165       229       139       166       230
 -1         9    4    0    1
 -2        59       109       228       196        57       113       234       200       108       226
 -2       227       197        58       111       231       198       112       232       233       201
 -1        10    4    0    1
 -2       109        36       138       228       113        38       142       234       110       137
 -2       229       226       111        37       140       231       114       141       235       232
 -1        11    4    0    1
 -2       196       228       167        81       200       234       171        83       227       230
 -2       168       195       198       231       169        82       233       236       172       199
 -1        12    4    0    1
 -2       228       138        66       167       234       142        68       171       229       139
 -2       166       230       231       140        67       169       235       143       170       236
 -1        13    4    0    1
 -2        57       113       234       200        55       117       240       204       112       232
 -2       233       201        56       115       237       202       116       238       239       205
 -1        14    4    0    1
 -2       113        38       142       234       117        40       146       240       114       141
 -2       235       232       115        39       144       237       118       145       241       238
 -1        15    4    0    1
 -2       200       234       171        83       204       240       175        85       233       236
 -2       172       199       202       237       173        84       239       242       176       203
 -1        16    4    0    1
 -2       234       142        68       171       240       146        70       175       235       143
 -2       170       236       237       144        69       173       241       147       174       242
 -1        17    4    0    1
 -2        55       117       240       204        53       121       246       208       116       238
 -2       239       205        54       119       243       206       120       244       245       209
 -1        18    4    0    1
 -2       117        40       146       240       121        42       150       246       118       145
 -2       241       238       119        41       148       243       122       149       247       244
 -1        19    4    0    1
 -2       204       240       175        85       208       246       179        87       239       242
 -2       176       203       206       243       177        86       245       248       180       207
 -1        20    4    0    1
 -2       240       146        70       175       246       150        72       179       241       147
 -2       174       242       243       148        71       177       247       151       178       248
 -1        21    4    0    1
 -2        53       121       246       208        51       125       252       212       120       244
 -2       245       209        52       123       249       210       124       250       251       213
 -1        22    4    0    1
 -2       121        42       150       246       125        44       154       252       122       149
 -2       247       244       123        43       152       249       126       153       253       250
 -1        23    4    0    1
 -2       208       246       179        87       212       252       183        89       245       248
 -2       180       207       210       249       181        88       251       254       184       211
 -1        24    4    0    1
 -2       246       150        72       179       252       154        74       183       247       151
 -2       178       248       249       152        73       181       253       155       182       254
 -3
    1PSTEP                         1           1           1          
  100CL  101 5.00000E-03         201                     1    1           1
 -4  DISP        4    1
 -5  D1          1    2    1    0
 -5  D2          1    2    2    0
 -5  D3          1    2    3    0
 -5  ALL         1    2    0    0    1ALL
 -1         1 0.00000E+00 0.00000E+00 0.00000E+00
 -1         2 0.00000E+00 0.00000E+00 0.00000E+00
 -1         3 0.00000E+00 0.00000E+00 0.00000E+00
 -1         4 0.00000E+00 0.00000E+00 0.00000E+00
 -1         9 0.00000E+00 0.00000E+00 0.00000E+00
 -1        10 0.00000E+00 0.00000E+00 0.00000E+00
 -1        11 0.00000E+00 0.00000E+00 0.00000E+00
 -1        12 0.00000E+00 0.00000E+00 0.00000E+00
 -1        13 0.00000E+00 0.00000E+00 0.00000E+00
 -1        14 0.00000E+00 0.00000E+00 0.00000E+00
 -1        15 0.00000E+00 0.00000E+00 0.00000E+00
 -1        16 0.00000E+00 0.00000E+00 0.00000E+00
 -1        17 0.00000E+00 0.00000E+00 0.00000E+00
 -1        18 0.00000E+00 0.00000E+00 0.00000E+00
 -1        19 0.00000E+00 0.00000E+00 0.00000E+00
 -1        20 0.00000E+00 0.00000E+00 0.00000E+00
 -1        33 6.38212E-05-1.55641E-04-2.04487E-04
 -1        34 3.13285E-05-4.81878E-04-3.74352E-04
 -1        35 2.57632E-05-9.70811E-04-4.83904E-04
 -1        36 8.14814E-06-1.52839E-03-5.40928E-04
 -1        37-5.16484E-06-2.11197E-03-5.47757E-04
 -1        38-2.11044E-05-2.69477E-03-5.19106E-04
 -1        39-4.25441E-05-3.19586E-03-3.84767E-04
 -1        40-4.31786E-05-3.54377E-03-2.09495E-04
 -1        41-4.43356E-05-3.58132E-03-6.38221E-05
 -1        42-6.12088E-05-3.74054E-03-1.48439E-04
 -1        43 6.20540E-05-3.47359E-03 8.54163E-05
 -1        44-6.05434E-05-3.46646E-03 4.48584E-04
 -1        51 6.05348E-05-3.46642E-03 4.48547E-04
 -1        52-6.20552E-05-3.47359E-03 8.53907E-05
 -1        53 6.12393E-05-3.74053E-03-1.48437E-04
 -1        54 4.43485E-05-3.58132E-03-6.38229E-05
 -1        55 4.32016E-05-3.54377E-03-2.09497E-04
 -1        56 4.25631E-05-3.19586E-03-3.84768E-04
 -1        57 2.11242E-05-2.69477E-03-5.19103E-04
 -1        58 5.17935E-06-2.11197E-03-5.47754E-04
 -1        59-8.13648E-06-1.52839E-03-5.40924E-04
 -1        60-2.57559E-05-9.70811E-04-4.83900E-04
 -1        61-3.13246E-05-4.81877E-04-3.74350E-04
 -1        62-6.38200E-05-1.55641E-04-2.04486E-04
 -1        63-6.26514E-05-1.53915E-04 2.01071E-04
 -1        64-3.11685E-05-4.81321E-04 3.67018E-04
 -1        65-2.34148E-05-9.70352E-04 4.73645E-04
 -1        66-7.92116E-06-1.53490E-03 5.27287E-04
 -1        67 5.00262E-06-2.10222E-03 5.30919E-04
 -1        68 1.45747E-05-2.69528E-03 4.93994E-04
 -1        69 5.87030E-05-3.20654E-03 3.58278E-04
 -1        70 6.60818E-05-3.63517E-03 1.84654E-04
 -1        71-5.59161E-06-3.45904E-03 3.34059E-05
 -1        72-1.04980E-04-3.47745E-03 7.89621E-05
 -1        73 2.03329E-04-3.88942E-03-1.68236E-04
 -1        74 3.19715E-04-4.41419E-03-4.94445E-04
 -1        78 6.26526E-05-1.53915E-04 2.01072E-04
 -1        79 3.11724E-05-4.81321E-04 3.67021E-04
 -1        80 2.34222E-05-9.70352E-04 4.73649E-04
 -1        81 7.93285E-06-1.53490E-03 5.27290E-04
 -1        82-4.98799E-06-2.10222E-03 5.30922E-04
 -1        83-1.45549E-05-2.69529E-03 4.93996E-04
 -1        84-5.86839E-05-3.20653E-03 3.58277E-04
 -1        85-6.60588E-05-3.63517E-03 1.84652E-04
 -1        86 5.60492E-06-3.45904E-03 3.34051E-05
 -1        87 1.05010E-04-3.47746E-03 7.89623E-05
 -1        88-2.03330E-04-3.88942E-03-1.68261E-04
 -1        89-3.19722E-04-4.41423E-03-4.94486E-04
 -1        93 0.00000E+00 0.00000E+00 0.00000E+00
 -1        94 0.00000E+00 0.00000E+00 0.00000E+00
 -1        95 0.00000E+00 0.00000E+00 0.00000E+00
 -1        96 0.00000E+00 0.00000E+00 0.00000E+00
 -1        97 0.00000E+00 0.00000E+00 0.00000E+00
 -1       103 4.96142E-10-1.81918E-04-2.00695E-04
 -1       104-1.56191E-05-5.01308E-04-3.80264E-04
 -1       105 1.80847E-09-5.03836E-04-3.82909E-04
 -1       106 1.56228E-05-5.01308E-04-3.80265E-04
 -1       107 3.68281E-09-9.80899E-04-4.86620E-04
 -1       108-3.29551E-06-1.53060E-03-5.44638E-04
 -1       109 5.40729E-09-1.54124E-03-5.43562E-04
 -1       110 3.30672E-06-1.53060E-03-5.44640E-04
 -1       111 7.69924E-09-2.10313E-03-5.51554E-04
 -1       112 7.53287E-06-2.71888E-03-5.21248E-04
 -1       113 8.51283E-09-2.71214E-03-5.22863E-04
 -1       114-7.51430E-06-2.71888E-03-5.21248E-04
 -1       115 1.04981E-08-3.15755E-03-3.93244E-04
 -1       116 3.30166E-05-3.52021E-03-2.03961E-04
 -1       117 7.54712E-09-3.64260E-03-1.83033E-04
 -1       118-3.29978E-05-3.52021E-03-2.03961E-04
 -1       119 1.05880E-08-3.55481E-03-6.57965E-05
 -1       120-6.83652E-06-3.91153E-03-1.12739E-04
 -1       121 2.58385E-09-3.76576E-03-1.17746E-04
 -1       122 6.85561E-06-3.91153E-03-1.12734E-04
 -1       123 5.78893E-09-3.48344E-03-2.52376E-05
 -1       124 1.48509E-04-2.96626E-03 4.29408E-04
 -1       125-3.38170E-08-3.58884E-03 4.49091E-04
 -1       126-1.48549E-04-2.96627E-03 4.29401E-04
 -1       132 7.14860E-07-1.18669E-04-1.58966E-06
 -1       133 1.61323E-05-4.69620E-04-1.77982E-04
 -1       134 8.90229E-07-4.74336E-04-2.85579E-06
 -1       135-1.53945E-05-4.69730E-04 1.71204E-04
 -1       136-1.64137E-07-9.53275E-04-5.54436E-06
 -1       137 4.81005E-06-1.52649E-03-2.68561E-04
 -1       138 5.19475E-07-1.51870E-03-7.30874E-06
 -1       139-3.66250E-06-1.52819E-03 2.55213E-04
 -1       140 1.70291E-06-2.12609E-03-9.12936E-06
 -1       141-1.04491E-05-2.68027E-03-2.44266E-04
 -1       142 5.54935E-06-2.68681E-03-5.04410E-06
 -1       143 1.13138E-05-2.68647E-03 2.24242E-04
 -1       144-8.89799E-06-3.21989E-03-1.26033E-05
 -1       145-2.02868E-05-3.56269E-03-1.31926E-04
 -1       146-1.29608E-05-3.46576E-03-2.46813E-05
 -1       147 1.81571E-05-3.58687E-03 1.00810E-04
 -1       148 2.70877E-05-3.68173E-03-2.36718E-05
 -1       149-3.27096E-05-3.42226E-03-4.68563E-05
 -1       150 8.54213E-05-3.44940E-03-1.91842E-06
 -1       151 2.84447E-05-3.35453E-03 6.70765E-08
 -1       152-1.27168E-04-3.72149E-03 1.20204E-05
 -1       153 7.02740E-05-3.63592E-03 1.90967E-04
 -1       154-1.20195E-04-2.50331E-03-2.03739E-05
 -1       155-6.55380E-05-3.88905E-03-2.38049E-04
 -1       161 5.01258E-10-1.80720E-04 1.96987E-04
 -1       162-1.53685E-05-5.00671E-04 3.73568E-04
 -1       163 1.82895E-09-5.01387E-04 3.75741E-04
 -1       164 1.53722E-05-5.00671E-04 3.73569E-04
 -1       165 3.70482E-09-9.80966E-04 4.76631E-04
 -1       166-3.94658E-06-1.52796E-03 5.30626E-04
 -1       167 5.45790E-09-1.53719E-03 5.32862E-04
 -1       168 3.95785E-06-1.52796E-03 5.30627E-04
 -1       169 7.73154E-09-2.10400E-03 5.30919E-04
 -1       170 7.53646E-06-2.71880E-03 5.01353E-04
 -1       171 8.60318E-09-2.68079E-03 4.96937E-04
 -1       172-7.51778E-06-2.71880E-03 5.01354E-04
 -1       173 1.05464E-08-3.17821E-03 3.69039E-04
 -1       174 3.14376E-05-3.46181E-03 1.71119E-04
 -1       175 7.71969E-09-3.56189E-03 1.72787E-04
 -1       176-3.14187E-05-3.46181E-03 1.71119E-04
 -1       177 1.05924E-08-3.51178E-03 2.08968E-05
 -1       178-4.46483E-05-4.00874E-03 7.16564E-05
 -1       179 2.97063E-09-3.57930E-03 4.82147E-05
 -1       180 4.46679E-05-4.00874E-03 7.16507E-05
 -1       181 6.16304E-09-3.68394E-03-6.07523E-05
 -1       182 1.14103E-04-2.56187E-03-4.71157E-04
 -1       183-3.08165E-08-4.35543E-03-4.76112E-04
 -1       184-1.14140E-04-2.56189E-03-4.71154E-04
 -1       190-7.13551E-07-1.18669E-04-1.58822E-06
 -1       191 1.53988E-05-4.69730E-04 1.71206E-04
 -1       192-8.85697E-07-4.74336E-04-2.85278E-06
 -1       193-1.61280E-05-4.69620E-04-1.77979E-04
 -1       194 1.71130E-07-9.53275E-04-5.54124E-06
 -1       195 3.67492E-06-1.52819E-03 2.55217E-04
 -1       196-5.06321E-07-1.51870E-03-7.30504E-06
 -1       197-4.79765E-06-1.52649E-03-2.68558E-04
 -1       198-1.68964E-06-2.12609E-03-9.12626E-06
 -1       199-1.12924E-05-2.68647E-03 2.24246E-04
 -1       200-5.52631E-06-2.68681E-03-5.03981E-06
 -1       201 1.04705E-05-2.68027E-03-2.44263E-04
 -1       202 8.91496E-06-3.21988E-03-1.26052E-05
 -1       203-1.81295E-05-3.58687E-03 1.00808E-04
 -1       204 1.29929E-05-3.46576E-03-2.46839E-05
 -1       205 2.03143E-05-3.56269E-03-1.31927E-04
 -1       206-2.70838E-05-3.68173E-03-2.36712E-05
 -1       207-2.84039E-05-3.35454E-03 7.31980E-08
 -1       208-8.53694E-05-3.44940E-03-1.89763E-06
 -1       209 3.27505E-05-3.42226E-03-4.68499E-05
 -1       210 1.27162E-04-3.72149E-03 1.19768E-05
 -1       211 6.55718E-05-3.88907E-03-2.38083E-04
 -1       212 1.20264E-04-2.50331E-03-2.04315E-05
 -1       213-7.02416E-05-3.63591E-03 1.90937E-04
 -1       219 6.40459E-10-1.44448E-04-1.41868E-06
 -1       220 1.74910E-09-4.89445E-04-1.83631E-04
 -1       221-4.12017E-07-4.90973E-04-3.61331E-06
 -1       222 1.63648E-09-4.92376E-04-3.77808E-06
 -1       223 4.15897E-07-4.90973E-04-3.61467E-06
 -1       224 1.75927E-09-4.88073E-04 1.76712E-04
 -1       225 3.90468E-09-9.65439E-04-5.09542E-06
 -1       226 5.05775E-09-1.53402E-03-2.72862E-04
 -1       227-3.58851E-07-1.51992E-03-6.82200E-06
 -1       228 4.72811E-09-1.52177E-03-8.40907E-06
 -1       229 3.70045E-07-1.51992E-03-6.82402E-06
 -1       230 5.08323E-09-1.53239E-03 2.57750E-04
 -1       231 8.19364E-09-2.12468E-03-7.42149E-06
 -1       232 7.61171E-09-2.68824E-03-2.49292E-04
 -1       233-2.21441E-06-2.68403E-03-1.26408E-05
 -1       234 6.73047E-09-2.68115E-03-1.39212E-05
 -1       235 2.23310E-06-2.68403E-03-1.26417E-05
 -1       236 7.65604E-09-2.67105E-03 2.27174E-04
 -1       237 1.14788E-08-3.19225E-03-9.25950E-06
 -1       238 5.30531E-09-3.61153E-03-1.24024E-04
 -1       239 5.77460E-06-3.45355E-03-1.43071E-05
 -1       240 3.27779E-09-3.47743E-03-2.00126E-05
 -1       241-5.75632E-06-3.45355E-03-1.43102E-05
 -1       242 5.39399E-09-3.57415E-03 8.85054E-05
 -1       243 1.39423E-08-3.65605E-03-2.11643E-05
 -1       244-2.03290E-09-3.52083E-03-2.04274E-05
 -1       245-3.38554E-05-3.61180E-03-2.61296E-05
 -1       246-6.98556E-09-3.65205E-03-1.96819E-05
 -1       247 3.38776E-05-3.61180E-03-2.61208E-05
 -1       248-1.82085E-09-3.43682E-03-9.96716E-06
 -1       249 1.13554E-08-3.52275E-03-1.30274E-05
 -1       250-4.42154E-08-4.08229E-03 1.75083E-04
 -1       251 3.03404E-05-2.57227E-03-1.00497E-05
 -1       252-5.25695E-08-3.12284E-03-1.52695E-05
 -1       253-3.03642E-05-2.57227E-03-1.00951E-05
 -1       254-4.24437E-08-4.41317E-03-2.53804E-04
 -3
    1PSTEP                         2           2           1          
  100CL  102 1.00000E-02         201                     1    2           1
 -4  DISP        4    1
 -5  D1          1    2    1    0
 -5  D2          1    2    2    0
 -5  D3          1    2    3    0
 -5  ALL         1    2    0    0    1ALL
 -1         1 0.00000E+00 0.00000E+00 0.00000E+00
 -1         2 0.00000E+00 0.00000E+00 0.00000E+00
 -1         3 0.00000E+00 0.00000E+00 0.00000E+00
 -1         4 0.00000E+00 0.00000E+00 0.00000E+00
 -1         9 0.00000E+00 0.00000E+00 0.00000E+00
 -1        10 0.00000E+00 0.00000E+00 0.00000E+00
 -1        11 0.00000E+00 0.00000E+00 0.00000E+00
 -1        12 0.00000E+00 0.00000E+00 0.00000E+00
 -1        13 0.00000E+00 0.00000E+00 0.00000E+00
 -1        14 0.00000E+00 0.00000E+00 0.00000E+00
 -1        15 0.00000E+00 0.00000E+00 0.00000E+00
 -1        16 0.00000E+00 0.00000E+00 0.00000E+00
 -1        17 0.00000E+00 0.00000E+00 0.00000E+00
 -1        18 0.00000E+00 0.00000E+00 0.00000E+00
 -1        19 0.00000E+00 0.00000E+00 0.00000E+00
 -1        20 0.00000E+00 0.00000E+00 0.00000E+00
 -1        33-3.19879E-05 7.91503E-05 1.02979E-04
 -1        34-1.54930E-05 2.44752E-04 1.87691E-04
 -1        35-1.27688E-05 4.92412E-04 2.42657E-04
 -1        36-4.54879E-06 7.74119E-04 2.69983E-04
 -1        37 4.24298E-06 1.07147E-03 2.71767E-04
 -1        38 1.33954E-05 1.36722E-03 2.50257E-04
 -1        39 2.06721E-05 1.60831E-03 1.85130E-04
 -1        40 1.39953E-05 1.78297E-03 9.23936E-05
 -1        41 3.48094E-05 1.81648E-03 2.06646E-05
 -1        42 4.42541E-05 1.87102E-03 1.13748E-05
 -1        43-3.86907E-05 1.69695E-03-7.83710E-05
 -1        44-1.50773E-04 1.60733E-03-2.33789E-04
 -1        51 1.50441E-04 1.60761E-03-2.33765E-04
 -1        52 3.84242E-05 1.69698E-03-7.83196E-05
 -1        53-4.44061E-05 1.87095E-03 1.14260E-05
 -1        54-3.50035E-05 1.81642E-03 2.06511E-05
 -1        55-1.41768E-05 1.78293E-03 9.23691E-05
 -1        56-2.08493E-05 1.60828E-03 1.85103E-04
 -1        57-1.35258E-05 1.36718E-03 2.50228E-04
 -1        58-4.35174E-06 1.07145E-03 2.71731E-04
 -1        59 4.47757E-06 7.74096E-04 2.69948E-04
 -1        60 1.27232E-05 4.92394E-04 2.42626E-04
 -1        61 1.54752E-05 2.44739E-04 1.87668E-04
 -1        62 3.19831E-05 7.91413E-05 1.02966E-04
 -1        63 3.19743E-05 7.91377E-05-1.02950E-04
 -1        64 1.54670E-05 2.44747E-04-1.87635E-04
 -1        65 1.26894E-05 4.92410E-04-2.42577E-04
 -1        66 4.44124E-06 7.74149E-04-2.69881E-04
 -1        67-4.35430E-06 1.07142E-03-2.71650E-04
 -1        68-1.34740E-05 1.36721E-03-2.50120E-04
 -1        69-2.10603E-05 1.60841E-03-1.84981E-04
 -1        70-1.45585E-05 1.78343E-03-9.22371E-05
 -1        71-3.44261E-05 1.81574E-03-2.04629E-05
 -1        72-4.27500E-05 1.86937E-03-1.11485E-05
 -1        73 3.55658E-05 1.69981E-03 7.85534E-05
 -1        74 1.45742E-04 1.61268E-03 2.33953E-04
 -1        78-3.19892E-05 7.91370E-05-1.02963E-04