
 displacements (vx,vy,vz) for set NALL and time  0.5000000E-02

         5  0.000000E+00  0.000000E+00  0.000000E+00
         6  0.000000E+00  0.000000E+00  0.000000E+00
         7  0.000000E+00  0.000000E+00  0.000000E+00
         8  0.000000E+00  0.000000E+00  0.000000E+00
        21  0.000000E+00  0.000000E+00  0.000000E+00
        22  0.000000E+00  0.000000E+00  0.000000E+00
        23  0.000000E+00  0.000000E+00  0.000000E+00
        24  0.000000E+00  0.000000E+00  0.000000E+00
        25  0.000000E+00  0.000000E+00  0.000000E+00
        26  0.000000E+00  0.000000E+00  0.000000E+00
        27  0.000000E+00  0.000000E+00  0.000000E+00
        28  0.000000E+00  0.000000E+00  0.000000E+00
        29  0.000000E+00  0.000000E+00  0.000000E+00
        30  0.000000E+00  0.000000E+00  0.000000E+00
        31  0.000000E+00  0.000000E+00  0.000000E+00
        32  0.000000E+00  0.000000E+00  0.000000E+00
        44 -6.587718E-05 -3.466292E-03  4.496506E-04
        45  5.746350E-05 -2.560038E-03  7.846735E-04
        46 -4.638003E-05 -1.797679E-03  9.516104E-04
        47  1.313711E-04 -6.747036E-04  5.429729E-04
        48 -1.313596E-04 -6.746938E-04  5.429300E-04
        49  4.642554E-05 -1.797594E-03  9.515280E-04
        50 -5.724453E-05 -2.560143E-03  7.845933E-04
        51  6.639619E-05 -3.466257E-03  4.492777E-04
        74  3.465404E-04 -4.424005E-03 -4.955925E-04
        75  2.007315E-04 -2.977745E-03 -7.844493E-04
        76 -1.148842E-04 -1.597842E-03 -9.525973E-04
        77 -2.112589E-04 -5.244119E-04 -5.578562E-04
        89 -3.465246E-04 -4.423477E-03 -4.951661E-04
        90 -2.003897E-04 -2.977782E-03 -7.843580E-04
        91  1.148122E-04 -1.597802E-03 -9.527311E-04
        92  2.112863E-04 -5.244395E-04 -5.579649E-04
        98  0.000000E+00  0.000000E+00  0.000000E+00
        99  0.000000E+00  0.000000E+00  0.000000E+00
       100  0.000000E+00  0.000000E+00  0.000000E+00
       101  0.000000E+00  0.000000E+00  0.000000E+00
       102  0.000000E+00  0.000000E+00  0.000000E+00
       124  1.468592E-04 -2.967509E-03  4.297715E-04
       125  2.303947E-07 -3.591434E-03  4.485942E-04
       126 -1.464267E-04 -2.967635E-03  4.299617E-04
       127  6.450443E-08 -2.562858E-03  9.067441E-04
       128 -8.629858E-06 -1.954781E-03  9.487061E-04
       129  5.684762E-08 -1.816087E-03  9.411724E-04
       130  8.721099E-06 -1.954800E-03  9.487450E-04
       131  8.166475E-10 -7.370179E-04  5.568199E-04
       153  7.775413E-05 -3.620295E-03  1.912658E-04
       154 -1.138196E-04 -2.477270E-03 -2.074074E-05
       155 -8.163800E-05 -3.893757E-03 -2.379609E-04
       156 -1.184389E-04 -2.793120E-03 -6.554735E-05
       157 -2.284662E-05 -1.508470E-03  3.934032E-04
       158  8.630896E-05 -1.562736E-03 -2.950232E-05
       159  5.111791E-05 -1.470778E-03 -4.117674E-04
       160  3.939546E-05 -6.577496E-04  4.935228E-06
       182  1.370405E-04 -2.561549E-03 -4.712039E-04
       183  3.002068E-07 -4.354457E-03 -4.764889E-04
       184 -1.367591E-04 -2.561388E-03 -4.712473E-04
       185  3.495812E-08 -2.829670E-03 -8.747311E-04
       186 -4.837707E-05 -2.164721E-03 -9.834924E-04
       187  8.924416E-08 -1.834002E-03 -9.627467E-04
       188  4.844103E-05 -2.164684E-03 -9.834958E-04
       189 -6.108219E-09 -7.217916E-04 -5.652138E-04
       211  8.173819E-05 -3.893482E-03 -2.380580E-04
       212  1.141453E-04 -2.477347E-03 -2.067935E-05
       213 -7.740516E-05 -3.620399E-03  1.910553E-04
       214  1.185375E-04 -2.793083E-03 -6.563727E-05
       215 -5.107230E-05 -1.470791E-03 -4.117947E-04
       216 -8.618030E-05 -1.562778E-03 -2.958631E-05
       217  2.294708E-05 -1.508435E-03  3.933331E-04
       218 -3.937469E-05 -6.577427E-04  4.909224E-06
       250  1.341758E-07 -4.101225E-03  1.739600E-04
       251  3.771296E-05 -2.572111E-03 -9.475045E-06
       252 -1.454044E-08 -3.140617E-03 -1.572650E-05
       253 -3.754684E-05 -2.572087E-03 -9.605765E-06
       254  1.523497E-07 -4.412088E-03 -2.552341E-04
       255  9.264444E-08 -2.596763E-03 -3.183497E-05
       256  2.749410E-08 -1.608325E-03  3.953773E-04
       257 -4.232043E-05 -1.748653E-03 -1.213273E-05
       258  8.977495E-09 -1.794927E-03 -1.456000E-05
       259  4.238478E-05 -1.748627E-03 -1.206679E-05
       260  4.923940E-08 -1.627916E-03 -4.178482E-04
       261  2.016395E-08 -7.167979E-04 -1.903920E-06

 forces (fx,fy,fz) for set NALL and time  0.5000000E-02

         5  2.306752E+00 -4.202110E+00 -1.097623E+00
         6 -2.307280E+00 -4.201601E+00 -1.097628E+00
         7  3.435202E+00  1.004690E+00  1.259248E+00
         8 -3.434751E+00  1.004185E+00  1.257259E+00
        21 -2.860108E+00  5.616244E+00 -1.791653E+01
        22 -8.617241E-04 -1.007570E+01 -6.223515E-01
        23  2.861323E+00  5.618053E+00 -1.791710E+01
        24 -4.685514E+00  1.717821E+01 -1.024550E+01
        25  7.398284E-01 -1.168784E+01 -4.687376E-01
        26  2.303235E+00  1.355871E+01  1.054889E+01
        27 -1.926661E+00 -3.719246E-01  1.760410E+01
        28 -1.512216E-03 -1.708341E+00  1.751881E+00
        29  1.927894E+00 -3.721744E-01  1.760564E+01
        30 -2.302214E+00  1.355791E+01  1.055142E+01
        31 -7.408142E-01 -1.168708E+01 -4.693869E-01
        32  4.684623E+00  1.717894E+01 -1.024416E+01
        44  1.811121E+00  5.221307E+01  1.445652E+00
        45 -7.131401E-06 -6.080380E-01  1.525634E-01
        46  5.450930E-06  1.541473E+00 -4.634098E-01
        47 -1.911830E-06 -1.167011E+00  5.403038E-01
        48  2.089446E-06 -1.167010E+00  5.403044E-01
        49 -4.880378E-06  1.541474E+00 -4.634100E-01
        50  5.313757E-06 -6.080403E-01  1.525630E-01
        51 -1.808704E+00  5.221580E+01  1.446185E+00
        74 -6.976267E+00  1.825093E+01 -1.000422E+00
        75  6.456341E-07 -6.081234E-01 -1.525356E-01
        76 -1.637893E-06  1.541534E+00  4.634018E-01
        77  4.014528E-06 -1.167024E+00 -5.403001E-01
        89  6.975351E+00  1.825167E+01 -9.923867E-01
        90 -3.467992E-06 -6.081198E-01 -1.525355E-01
        91  2.119462E-06  1.541534E+00  4.634019E-01
        92 -3.430542E-06 -1.167026E+00 -5.403000E-01
        98  7.541472E-04  3.826641E+01 -1.716299E+01
        99 -3.626797E-01 -7.640822E+00  6.524782E-01
       100  1.147808E-03 -2.297888E+01 -3.754873E-01
       101  3.623944E-01 -7.642638E+00  6.519066E-01
       102 -9.839345E-04  3.534097E+01  1.648255E+01
       124  1.743105E+01  1.944036E+01 -6.098744E-01
       125  3.015181E-03  1.127847E+02  2.970753E+00
       126 -1.743456E+01  1.943676E+01 -6.073524E-01
       127  4.398333E-07 -1.216077E+00  3.051177E-01
       128  4.557362E-06 -2.615777E+00  9.358650E-01
       129 -1.977918E-07  3.082946E+00 -9.268166E-01
       130 -5.016836E-06 -2.615776E+00  9.358641E-01
       131  5.295596E-07 -2.334021E+00  1.080606E+00
       153  1.206582E+01 -1.330351E+02 -2.323725E+00
       154 -1.851383E+00  9.962877E+01  4.272014E-01
       155  2.699594E+00 -1.091520E+02  1.413735E+00
       156 -1.171604E-05 -1.216153E+00 -2.478954E-05
       157 -7.607204E-06 -2.615785E+00  7.018891E-01
       158  5.803646E-06  3.083006E+00  1.159795E-05
       159 -1.389451E-07 -2.615848E+00 -7.018921E-01
       160 -1.208099E-06 -2.334038E+00 -3.363797E-06
       182  8.668758E+00  6.494091E+01  4.360501E-01
       183  2.868038E-03  5.193976E+01 -1.379474E+00
       184 -8.670928E+00  6.493933E+01  4.285477E-01
       185  1.291342E-06 -6.742573E+00 -3.050653E-01
       186  2.521124E-06 -8.142179E+00 -9.358385E-01
       187 -4.799296E-07 -2.443243E+00  9.268048E-01
       188 -2.878692E-06 -8.142177E+00 -9.358381E-01
       189  4.008566E-07 -7.860373E+00 -1.080595E+00
       211 -2.700378E+00 -1.091451E+02  1.403080E+00
       212  1.850576E+00  9.962880E+01  4.344877E-01
       213 -1.206498E+01 -1.330434E+02 -2.328632E+00
       214  9.290807E-06 -1.216154E+00 -2.298061E-05
       215 -1.520342E-06 -2.615846E+00 -7.018923E-01
       216 -4.644052E-06  3.083005E+00  1.076122E-05
       217  6.236504E-06 -2.615787E+00  7.018893E-01
       218  5.972756E-07 -2.334038E+00 -4.638789E-06
       250 -7.161993E-04 -2.962450E+02 -5.934362E+00
       251  6.443874E+00  8.838352E+01  6.299383E-01
       252 -4.718667E-03  2.063686E+02  1.320556E+00
       253 -6.441123E+00  8.838636E+01  6.238319E-01
       254  1.958407E-03 -2.687219E+02  1.448342E+00
       255  3.291432E-06 -2.432314E+00 -6.072734E-05
       256  8.448356E-07 -5.231571E+00  1.403768E+00
       257  7.240917E-06 -5.231633E+00 -2.667986E-05
       258 -6.528156E-07  6.166016E+00  2.392871E-05
       259 -6.920848E-06 -5.231632E+00 -2.695524E-05
       260  1.693363E-06 -5.231707E+00 -1.403780E+00
       261 -4.982070E-07 -4.668080E+00 -9.360840E-06

 displacements (vx,vy,vz) for set NALL and time  0.1000000E-01

         5  0.000000E+00  0.000000E+00  0.000000E+00
         6  0.000000E+00  0.000000E+00  0.000000E+00
         7  0.000000E+00  0.000000E+00  0.000000E+00
         8  0.000000E+00  0.000000E+00  0.000000E+00
        21  0.000000E+00  0.000000E+00  0.000000E+00
        22  0.000000E+00  0.000000E+00  0.000000E+00
        23  0.000000E+00  0.000000E+00  0.000000E+00
        24  0.000000E+00  0.000000E+00  0.000000E+00
        25  0.000000E+00  0.000000E+00  0.000000E+00
        26  0.000000E+00  0.000000E+00  0.000000E+00
        27  0.000000E+00  0.000000E+00  0.000000E+00
        28  0.000000E+00  0.000000E+00  0.000000E+00
        29  0.000000E+00  0.000000E+00  0.000000E+00
        30  0.000000E+00  0.000000E+00  0.000000E+00
        31  0.000000E+00  0.000000E+00  0.000000E+00
        32  0.000000E+00  0.000000E+00  0.000000E+00
        44 -1.510257E-04  1.609614E-03 -2.340529E-04
        45 -3.513554E-05  1.249649E-03 -3.774564E-04
        46  4.145180E-05  9.138104E-04 -4.323179E-04
        47 -5.402125E-05  3.697838E-04 -2.840253E-04
        48  5.401840E-05  3.697824E-04 -2.840230E-04
        49 -4.147013E-05  9.138031E-04 -4.323122E-04
        50  3.511639E-05  1.249655E-03 -3.774257E-04
        51  1.509855E-04  1.609544E-03 -2.339842E-04
        74  1.497718E-04  1.613840E-03  2.342346E-04
        75  3.393543E-05  1.251584E-03  3.774252E-04
        76 -4.073124E-05  9.129063E-04  4.323466E-04
        77  5.439904E-05  3.690828E-04  2.841099E-04
        89 -1.498047E-04  1.613894E-03  2.342831E-04
        90 -3.395417E-05  1.251580E-03  3.774497E-04
        91  4.071356E-05  9.129120E-04  4.323524E-04
        92 -5.440187E-05  3.690845E-04  2.841124E-04
        98  0.000000E+00  0.000000E+00  0.000000E+00
        99  0.000000E+00  0.000000E+00  0.000000E+00
       100  0.000000E+00  0.000000E+00  0.000000E+00
       101  0.000000E+00  0.000000E+00  0.000000E+00
       102  0.000000E+00  0.000000E+00  0.000000E+00
       124  4.750869E-06  1.479810E-03 -2.205218E-04
       125 -1.510716E-08  1.768746E-03 -2.314402E-04
       126 -4.788295E-06  1.479839E-03 -2.205542E-04
       127 -1.139145E-08  1.301680E-03 -4.173592E-04
       128 -3.454049E-06  9.592010E-04 -4.635646E-04
       129 -5.500457E-09  8.894977E-04 -4.723316E-04
       130  3.440593E-06  9.592057E-04 -4.635683E-04
       131 -1.525779E-09  3.754371E-04 -2.760482E-04
       153  1.247248E-04  1.917207E-03 -1.039149E-04
       154  4.856868E-07  1.694195E-03  2.947985E-08
       155 -1.247369E-04  1.918347E-03  1.041931E-04
       156  5.270054E-07  1.406685E-03  3.069111E-07
       157 -2.498516E-05  7.930016E-04 -1.860697E-04
       158 -4.069950E-07  8.099610E-04  1.410138E-07
       159  2.482669E-05  7.928444E-04  1.861366E-04
       160 -1.855822E-07  3.081958E-04 -2.270952E-08
       182  4.821037E-06  1.477928E-03  2.207585E-04
       183 -1.140634E-08  1.772339E-03  2.316746E-04
       184 -4.851847E-06  1.477948E-03  2.207797E-04
       185 -1.275480E-08  1.302925E-03  4.172154E-04
       186 -3.268451E-06  9.602263E-04  4.637675E-04
       187 -4.501619E-09  8.896806E-04  4.724749E-04
       188  3.256306E-06  9.602306E-04  4.637711E-04
       189 -1.520023E-09  3.753835E-04  2.761075E-04
       211  1.246931E-04  1.918376E-03  1.042047E-04
       212 -5.315746E-07  1.694192E-03  6.455678E-08
       213 -1.247733E-04  1.917168E-03 -1.038965E-04
       214 -5.558598E-07  1.406685E-03  3.246711E-07
       215 -2.483963E-05  7.928466E-04  1.861511E-04
       216  3.973525E-07  8.099612E-04  1.498275E-07
       217  2.497222E-05  7.929988E-04 -1.860542E-04
       218  1.811150E-07  3.081958E-04 -1.990779E-08
       250 -2.415049E-08  1.909980E-03 -1.030987E-04
       251 -1.883208E-07  1.209762E-03 -1.414485E-08
       252 -3.193988E-08  1.542527E-03  2.502335E-08
       253  1.352714E-07  1.209764E-03 -3.247347E-08
       254 -2.112572E-08  1.911426E-03  1.035866E-04
       255 -1.316525E-08  1.375350E-03  1.592658E-07
       256 -5.742689E-09  7.833347E-04 -2.072890E-04
       257  1.934473E-07  9.140560E-04  7.567717E-08
       258 -6.316995E-09  8.123620E-04  8.300880E-08
       259 -2.048973E-07  9.140557E-04  7.173825E-08
       260 -5.551712E-09  7.834793E-04  2.074020E-04
       261 -1.204514E-09  3.484711E-04  9.038102E-09

 forces (fx,fy,fz) for set NALL and time  0.1000000E-01

         5 -1.664893E+00  3.837156E-01  9.242060E-01
         6  1.664914E+00  3.836877E-01  9.243145E-01
         7 -1.670319E+00  3.593170E-01 -9.246293E-01
         8  1.670342E+00  3.592916E-01 -9.247248E-01
        21  1.031850E+00 -1.646844E+00  8.957190E+00
        22 -5.525532E-05  7.342452E-01  1.411662E+00
        23 -1.031829E+00 -1.646887E+00  8.957275E+00
        24  1.171557E+00 -5.894532E+00  4.716343E+00
        25 -3.550492E-03  2.436913E+00  2.617332E-03
        26 -1.160607E+00 -5.876940E+00 -4.718928E+00
        27  1.028049E+00 -1.619403E+00 -8.955671E+00
        28 -5.655527E-05  6.947089E-01 -1.416209E+00
        29 -1.028019E+00 -1.619414E+00 -8.955752E+00
        30  1.160679E+00 -5.877013E+00 -4.718883E+00
        31  3.557122E-03  2.436900E+00  2.425444E-03
        32 -1.171471E+00 -5.894461E+00  4.716413E+00
        44 -6.129756E+00 -1.510402E+01 -7.536332E-01
        45  6.108022E-06  5.208353E-01 -1.306833E-01
        46 -4.673646E-06 -1.320401E+00  3.969495E-01
        47  1.646820E-06  9.996432E-01 -4.628157E-01
        48 -1.798960E-06  9.996421E-01 -4.628162E-01
        49  4.184900E-06 -1.320402E+00  3.969497E-01
        50 -4.551031E-06  5.208373E-01 -1.306830E-01
        51  6.129721E+00 -1.510413E+01 -7.531323E-01
        74  6.154596E+00 -1.494621E+01  7.489973E-01
        75 -5.476342E-07  5.209086E-01  1.306595E-01
        76  1.404642E-06 -1.320454E+00 -3.969427E-01
        77 -3.448524E-06  9.996540E-01  4.628125E-01
        89 -6.154621E+00 -1.494612E+01  7.494591E-01
        90  2.965250E-06  5.209054E-01  1.306595E-01
        91 -1.817169E-06 -1.320453E+00 -3.969428E-01
        92  2.948294E-06  9.996559E-01  4.628125E-01
        98 -1.972173E-07 -1.289237E+01  8.227306E+00
        99  1.396826E-03  3.927931E+00 -3.015568E-03
       100  6.374027E-05  5.306627E+00  2.285576E-03
       101 -1.558304E-03  3.927930E+00 -2.831692E-03
       102 -1.095206E-05 -1.287782E+01 -8.226053E+00
       124 -6.432629E+00 -1.698018E+01  4.660754E-01
       125  1.092643E-04 -3.106250E+01 -1.399953E+00
       126  6.432551E+00 -1.698008E+01  4.660925E-01
       127 -3.767287E-07  1.041671E+00 -2.613589E-01
       128 -3.909528E-06  2.240633E+00 -8.016472E-01
       129  1.694045E-07 -2.640803E+00  7.938964E-01
       130  4.303133E-06  2.240632E+00 -8.016464E-01
       131 -4.536093E-07  1.999285E+00 -9.256298E-01
       153  4.572935E+00  5.175091E+01  1.173239E+00
       154  8.309937E-03 -3.297682E+01 -5.099043E-03
       155 -4.640325E+00  5.163606E+01 -1.162438E+00
       156  1.002925E-05  1.041737E+00  2.122525E-05
       157  6.521945E-06  2.240640E+00 -6.012271E-01
       158 -4.970776E-06 -2.640853E+00 -9.928998E-06
       159  1.167040E-07  2.240694E+00  6.012297E-01
       160  1.038894E-06  1.999300E+00  2.881471E-06
       182 -6.394499E+00 -1.719013E+01 -4.643559E-01
       183  1.334724E-04 -3.077784E+01  1.388860E+00
       184  6.394435E+00 -1.719013E+01 -4.645166E-01
       185 -1.106118E-06  1.069527E+00  2.613140E-01
       186 -2.162733E-06  2.268408E+00  8.016245E-01
       187  4.110790E-07 -2.613210E+00 -7.938863E-01
       188  2.469048E-06  2.268406E+00  8.016241E-01
       189 -3.433642E-07  2.027017E+00  9.256210E-01
       211  4.640391E+00  5.163661E+01 -1.163245E+00
       212 -8.680056E-03 -3.297683E+01 -4.225449E-03
       213 -4.572918E+00  5.175037E+01  1.172472E+00
       214 -7.951791E-06  1.041737E+00  1.967573E-05
       215  1.304643E-06  2.240692E+00  6.012298E-01
       216  3.977445E-06 -2.640853E+00 -9.212245E-06
       217 -5.347799E-06  2.240641E+00 -6.012273E-01
       218 -5.156634E-07  1.999300E+00  3.973602E-06
       250  4.663967E-05  1.048582E+02  2.321101E+00
       251 -2.839023E-02 -4.738607E+01 -6.750059E-03
       252 -5.330277E-04 -6.964645E+01 -1.183432E-02
       253  2.896881E-02 -4.738601E+01 -7.005428E-03
       254  1.144147E-04  1.047251E+02 -2.285450E+00
       255 -2.819341E-06  2.083480E+00  5.200269E-05
       256 -7.236472E-07  4.481281E+00 -1.202446E+00
       257 -6.205226E-06  4.481333E+00  2.284544E-05
       258  5.591503E-07 -5.281711E+00 -2.048561E-05
       259  5.931111E-06  4.481333E+00  2.308135E-05
       260 -1.450481E-06  4.481397E+00  1.202456E+00
       261  4.267642E-07  3.998604E+00  8.017820E-06

 displacements (vx,vy,vz) for set NALL and time  0.1500000E-01

         5  0.000000E+00  0.000000E+00  0.000000E+00
         6  0.000000E+00  0.000000E+00  0.000000E+00
         7  0.000000E+00  0.000000E+00  0.000000E+00
         8  0.000000E+00  0.000000E+00  0.000000E+00
        21  0.000000E+00  0.000000E+00  0.000000E+00
        22  0.000000E+00  0.000000E+00  0.000000E+00
        23  0.000000E+00  0.000000E+00  0.000000E+00
        24  0.000000E+00  0.000000E+00  0.000000E+00
        25  0.000000E+00  0.000000E+00  0.000000E+00
        26  0.000000E+00  0.000000E+00  0.000000E+00
        27  0.000000E+00  0.000000E+00  0.000000E+00
        28  0.000000E+00  0.000000E+00  0.000000E+00
        29  0.000000E+00  0.000000E+00  0.000000E+00
        30  0.000000E+00  0.000000E+00  0.000000E+00
        31  0.000000E+00  0.000000E+00  0.000000E+00
        32  0.000000E+00  0.000000E+00  0.000000E+00
        44  1.224883E-04 -1.273720E-03  1.853351E-04
        45  2.806308E-05 -9.899044E-04  2.988199E-04
        46 -3.318026E-05 -7.240890E-04  3.420404E-04
        47  4.262416E-05 -2.932919E-04  2.251983E-04
        48 -4.262971E-05 -2.932952E-04  2.252089E-04
        49  3.315013E-05 -7.240997E-04  3.420619E-04
        50 -2.811227E-05 -9.898996E-04  2.988708E-04
        51 -1.226343E-04 -1.273758E-03  1.854554E-04
        74 -1.235321E-04 -1.271761E-03 -1.854490E-04
        75 -2.881421E-05 -9.889359E-04 -2.989511E-04
        76  3.350766E-05 -7.246389E-04 -3.420995E-04
        77 -4.244595E-05 -2.935873E-04 -2.251998E-04
        89  1.234694E-04 -1.271797E-03 -1.854620E-04
        90  2.875595E-05 -9.889343E-04 -2.989392E-04
        91 -3.352805E-05 -7.246369E-04 -3.420756E-04
        92  4.243921E-05 -2.935831E-04 -2.251868E-04
        98  0.000000E+00  0.000000E+00  0.000000E+00
        99  0.000000E+00  0.000000E+00  0.000000E+00
       100  0.000000E+00  0.000000E+00  0.000000E+00
       101  0.000000E+00  0.000000E+00  0.000000E+00
       102  0.000000E+00  0.000000E+00  0.000000E+00
       124 -4.836970E-06 -1.172444E-03  1.748108E-04
       125 -5.531282E-08 -1.401671E-03  1.833660E-04
       126  4.716267E-06 -1.172417E-03  1.747607E-04
       127 -2.390102E-08 -1.031777E-03  3.303866E-04
       128  2.790924E-06 -7.597512E-04  3.672599E-04
       129 -1.253091E-08 -7.044608E-04  3.744116E-04
       130 -2.819064E-06 -7.597482E-04  3.672460E-04
       131 -2.301251E-09 -2.974143E-04  2.186607E-04
       153 -1.013758E-04 -1.520904E-03  8.237262E-05
       154  1.092980E-07 -1.348896E-03 -3.402526E-08
       155  1.014555E-04 -1.520140E-03 -8.241968E-05
       156  1.928450E-07 -1.115026E-03  8.087336E-08
       157  2.039541E-05 -6.286006E-04  1.472718E-04
       158 -1.228301E-07 -6.419092E-04  3.068476E-08
       159 -2.044550E-05 -6.288118E-04 -1.473126E-04
       160 -6.497182E-08 -2.437572E-04 -5.401873E-09
       182 -5.180734E-06 -1.173302E-03 -1.747917E-04
       183 -3.819597E-08 -1.400366E-03 -1.833797E-04
       184  5.111437E-06 -1.173317E-03 -1.747926E-04
       185 -2.704253E-08 -1.031478E-03 -3.305837E-04
       186  2.937318E-06 -7.595842E-04 -3.672502E-04
       187 -1.221615E-08 -7.047862E-04 -3.744538E-04
       188 -2.959832E-06 -7.595836E-04 -3.672407E-04
       189 -2.140330E-09 -2.975308E-04 -2.186737E-04
       211 -1.015153E-04 -1.520167E-03 -8.240903E-05
       212 -1.772300E-07 -1.348914E-03 -1.890357E-08
       213  1.012668E-04 -1.520926E-03  8.243956E-05
       214 -2.510581E-07 -1.115022E-03  1.094696E-07
       215  2.042253E-05 -6.288114E-04 -1.472917E-04
       216  1.010675E-07 -6.419110E-04  5.497448E-08
       217 -2.042130E-05 -6.286074E-04  1.472959E-04
       218  5.542644E-08 -2.437574E-04  6.483910E-09
       250 -5.361928E-08 -1.512315E-03  8.181488E-05
       251 -2.487745E-07 -9.573744E-04 -4.592170E-08
       252 -4.425014E-08 -1.222135E-03 -2.268547E-08
       253  1.685056E-07 -9.573600E-04 -6.255422E-08
       254 -4.010384E-08 -1.512151E-03 -8.178052E-05
       255 -2.466545E-08 -1.090863E-03  1.339752E-08
       256 -1.234695E-08 -6.202136E-04  1.643872E-04
       257  6.985267E-08 -7.247841E-04  5.155405E-09
       258 -1.366383E-08 -6.425129E-04 -2.119065E-09
       259 -9.345127E-08 -7.247847E-04 -4.694179E-09
       260 -1.359403E-08 -6.202694E-04 -1.643943E-04
       261 -3.304794E-09 -2.759217E-04  7.905827E-09

 forces (fx,fy,fz) for set NALL and time  0.1500000E-01

         5  1.328281E+00 -2.835440E-01 -7.357493E-01
         6 -1.328172E+00 -2.836246E-01 -7.357010E-01
         7  1.327462E+00 -2.924930E-01  7.356200E-01
         8 -1.327390E+00 -2.925418E-01  7.357016E-01
        21 -8.152488E-01  1.284927E+00 -7.095031E+00
        22  3.477922E-05 -5.327014E-01 -1.128704E+00
        23  8.150809E-01  1.284782E+00 -7.094878E+00
        24 -9.098859E-01  4.641703E+00 -3.733092E+00
        25  9.016485E-04 -1.888867E+00  1.200466E-03
        26  9.130025E-01  4.648832E+00  3.732202E+00
        27 -8.175297E-01  1.295793E+00  7.096068E+00
        28  8.175794E-05 -5.497903E-01  1.126955E+00
        29  8.173988E-01  1.295804E+00  7.095808E+00
        30 -9.130559E-01  4.648875E+00  3.731871E+00
        31 -8.530026E-04 -1.888897E+00  1.294047E-03
        32  9.100102E-01  4.641616E+00 -3.733350E+00
        44  4.947484E+00  1.182177E+01  5.937264E-01
        45 -4.853417E-06 -4.142314E-01  1.039353E-01
        46  3.723366E-06  1.050144E+00 -3.157028E-01
        47 -1.326430E-06 -7.950387E-01  3.680877E-01
        48  1.447426E-06 -7.950378E-01  3.680881E-01
        49 -3.334625E-06  1.050145E+00 -3.157029E-01
        50  3.615072E-06 -4.142330E-01  1.039350E-01
        51 -4.947772E+00  1.182154E+01  5.938352E-01
        74 -4.944880E+00  1.188627E+01 -5.948634E-01
        75  4.244138E-07 -4.142896E-01 -1.039163E-01
        76 -1.119505E-06  1.050186E+00  3.156973E-01
        77  2.760158E-06 -7.950473E-01 -3.680852E-01
        89  4.944906E+00  1.188621E+01 -5.951602E-01
        90 -2.347237E-06 -4.142871E-01 -1.039163E-01
        91  1.447627E-06  1.050186E+00  3.156974E-01
        92 -2.362320E-06 -7.950488E-01 -3.680852E-01
        98  1.655490E-05  1.015528E+01 -6.517863E+00
        99  3.691221E-03 -3.125866E+00 -8.818796E-04
       100  1.171788E-04 -4.141987E+00  1.145942E-03
       101 -3.907192E-03 -3.125854E+00 -4.467258E-04
       102  4.048447E-05  1.016764E+01  6.517917E+00
       124  5.087154E+00  1.358747E+01 -3.658489E-01
       125 -2.135653E-04  2.429805E+01  1.102504E+00
       126 -5.086884E+00  1.358774E+01 -3.662959E-01
       127  2.995858E-07 -8.284632E-01  2.078644E-01
       128  3.118415E-06 -1.782026E+00  6.375679E-01
       129 -1.347026E-07  2.100289E+00 -6.314035E-01
       130 -3.431493E-06 -1.782025E+00  6.375673E-01
       131  3.607614E-07 -1.590077E+00  7.361742E-01
       153 -3.784044E+00 -4.084170E+01 -9.245148E-01
       154 -1.495053E-02  2.589335E+01 -6.470178E-04
       155  3.769975E+00 -4.088947E+01  9.266350E-01
       156 -7.967356E-06 -8.285152E-01 -1.686818E-05
       157 -5.195954E-06 -1.782031E+00  4.781694E-01
       158  3.952623E-06  2.100329E+00  7.888864E-06
       159 -8.870933E-08 -1.782073E+00 -4.781714E-01
       160 -8.319389E-07 -1.590088E+00 -2.291832E-06
       182  5.104357E+00  1.350179E+01  3.668925E-01
       183 -3.344968E-05  2.443945E+01 -1.105002E+00
       184 -5.104180E+00  1.350174E+01  3.670154E-01
       185  8.796858E-07 -8.300441E-01 -2.078286E-01
       186  1.725524E-06 -1.783542E+00 -6.375498E-01
       187 -3.269112E-07  2.098917E+00  6.313955E-01
       188 -1.969181E-06 -1.783541E+00 -6.375496E-01
       189  2.730808E-07 -1.591559E+00 -7.361671E-01
       211 -3.769814E+00 -4.088972E+01  9.268310E-01
       212  1.516904E-02  2.589315E+01 -1.243371E-03
       213  3.783820E+00 -4.084138E+01 -9.238744E-01
       214  6.315039E-06 -8.285157E-01 -1.563579E-05
       215 -1.041758E-06 -1.782072E+00 -4.781715E-01
       216 -3.162547E-06  2.100329E+00  7.318793E-06
       217  4.262093E-06 -1.782032E+00  4.781695E-01
       218  4.157902E-07 -1.590088E+00 -3.160420E-06
       250 -1.932679E-04 -8.263817E+01 -1.825415E+00
       251 -3.553982E-02  3.766978E+01 -2.625390E-03
       252  4.154429E-05  5.479419E+01 -1.970292E-03
       253  3.555706E-02  3.766996E+01 -3.109721E-03
       254 -3.288049E-05 -8.274475E+01  1.833044E+00
       255  2.242219E-06 -1.657036E+00 -4.133733E-05
       256  5.754977E-07 -3.564062E+00  9.563318E-01
       257  4.939043E-06 -3.564104E+00 -1.815812E-05
       258 -4.446478E-07  4.200662E+00  1.627675E-05
       259 -4.721105E-06 -3.564104E+00 -1.834577E-05
       260  1.153564E-06 -3.564154E+00 -9.563400E-01
       261 -3.394262E-07 -3.180180E+00 -6.376012E-06

 displacements (vx,vy,vz) for set NALL and time  0.2000000E-01

         5  0.000000E+00  0.000000E+00  0.000000E+00
         6  0.000000E+00  0.000000E+00  0.000000E+00
         7  0.000000E+00  0.000000E+00  0.000000E+00
         8  0.000000E+00  0.000000E+00  0.000000E+00
        21  0.000000E+00  0.000000E+00  0.000000E+00
        22  0.000000E+00  0.000000E+00  0.000000E+00
        23  0.000000E+00  0.000000E+00  0.000000E+00
        24  0.000000E+00  0.000000E+00  0.000000E+00
        25  0.000000E+00  0.000000E+00  0.000000E+00
        26  0.000000E+00  0.000000E+00  0.000000E+00
        27  0.000000E+00  0.000000E+00  0.000000E+00
        28  0.000000E+00  0.000000E+00  0.000000E+00
        29  0.000000E+00  0.000000E+00  0.000000E+00
        30  0.000000E+00  0.000000E+00  0.000000E+00
        31  0.000000E+00  0.000000E+00  0.000000E+00
        32  0.000000E+00  0.000000E+00  0.000000E+00
        44 -9.282474E-05  9.886546E-04 -1.438093E-04
        45 -2.146182E-05  7.677769E-04 -2.314668E-04
        46  2.534745E-05  5.617864E-04 -2.656244E-04
        47 -3.324099E-05  2.273666E-04 -1.745799E-04
        48  3.325076E-05  2.273726E-04 -1.746016E-04
        49 -2.530280E-05  5.618156E-04 -2.656702E-04
        50  2.157703E-05  7.677480E-04 -2.315256E-04
        51  9.306181E-05  9.886818E-04 -1.439575E-04
        74  9.052540E-05  9.885190E-04  1.438377E-04
        75  2.059875E-05  7.681797E-04  2.316796E-04
        76 -2.508189E-05  5.619218E-04  2.657651E-04
        77  3.355358E-05  2.273319E-04  1.745861E-04
        89 -9.031215E-05  9.886228E-04  1.437975E-04
        90 -2.047552E-05  7.681664E-04  2.316386E-04
        91  2.511158E-05  5.619216E-04  2.657090E-04
        92 -3.354233E-05  2.273210E-04  1.745513E-04
        98  0.000000E+00  0.000000E+00  0.000000E+00
        99  0.000000E+00  0.000000E+00  0.000000E+00
       100  0.000000E+00  0.000000E+00  0.000000E+00
       101  0.000000E+00  0.000000E+00  0.000000E+00
       102  0.000000E+00  0.000000E+00  0.000000E+00
       124  3.982378E-06  9.092635E-04 -1.354957E-04
       125  1.020574E-07  1.087096E-03 -1.420837E-04
       126 -3.776618E-06  9.092232E-04 -1.354274E-04
       127  4.943296E-08  8.000399E-04 -2.565248E-04
       128 -2.192836E-06  5.897279E-04 -2.848655E-04
       129  2.663170E-08  5.468463E-04 -2.901988E-04
       130  2.244139E-06  5.897191E-04 -2.848421E-04
       131  3.123582E-09  2.309293E-04 -1.697225E-04
       153  7.673287E-05  1.176199E-03 -6.379283E-05
       154 -1.065684E-06  1.040520E-03  1.329582E-08
       155 -7.534540E-05  1.178471E-03  6.388701E-05
       156 -3.944766E-07  8.653805E-04  6.274393E-08
       157 -1.522898E-05  4.874944E-04 -1.143684E-04
       158  4.542900E-07  4.971607E-04  2.696452E-08
       159  1.500612E-05  4.870147E-04  1.143878E-04
       160  1.253264E-07  1.894238E-04  2.187649E-08
       182  6.413532E-07  9.096169E-04  1.354307E-04
       183  1.208114E-07  1.085733E-03  1.421874E-04
       184 -4.278541E-07  9.096472E-04  1.353941E-04
       185  4.720457E-08  7.991311E-04  2.564035E-04
       186 -1.606928E-06  5.896043E-04  2.848669E-04
       187  2.666447E-08  5.472193E-04  2.900641E-04
       188  1.651082E-06  5.896085E-04  2.848433E-04
       189  1.657449E-09  2.312145E-04  1.697343E-04
       211  7.553372E-05  1.178520E-03  6.377262E-05
       212  1.245066E-06  1.040489E-03 -1.349797E-08
       213 -7.654460E-05  1.176178E-03 -6.387817E-05
       214  4.908752E-07  8.653969E-04  6.976963E-10
       215 -1.496017E-05  4.870033E-04  1.143537E-04
       216 -3.986132E-07  4.971432E-04 -2.237822E-08
       217  1.528380E-05  4.875034E-04 -1.144159E-04
       218 -1.095757E-07  1.894252E-04  2.187210E-09
       250  8.693472E-08  1.176104E-03 -6.344701E-05
       251 -7.439460E-07  7.425997E-04  4.635733E-08