    1C
    1UUSER                                                              
    1UDATE              15.july.2018                                    
    1UTIME              19:10:13                                        
    1UHOST                                                              
    1UPGM               CalculiX                                        
    1UVERSION           Version 2.13                             
    1UCOMPILETIME       jue jun 14 00:40:39 CEST 2018                    
    1UDIR                                                               
    1UDBN                                                               
    1UMAT    1EL                                                        
    2C                            81                                     1
 -1         5 0.00000E+00 0.00000E+00 8.00000E+00
 -1         6 1.00000E+00 0.00000E+00 8.00000E+00
 -1         7 1.00000E+00 1.00000E+00 8.00000E+00
 -1         8 0.00000E+00 1.00000E+00 8.00000E+00
 -1        21 2.50000E-01 0.00000E+00 8.00000E+00
 -1        22 5.00000E-01 0.00000E+00 8.00000E+00
 -1        23 7.50000E-01 0.00000E+00 8.00000E+00
 -1        24 1.00000E+00 2.50000E-01 8.00000E+00
 -1        25 1.00000E+00 5.00000E-01 8.00000E+00
 -1        26 1.00000E+00 7.50000E-01 8.00000E+00
 -1        27 7.50000E-01 1.00000E+00 8.00000E+00
 -1        28 5.00000E-01 1.00000E+00 8.00000E+00
 -1        29 2.50000E-01 1.00000E+00 8.00000E+00
 -1        30 0.00000E+00 7.50000E-01 8.00000E+00
 -1        31 0.00000E+00 5.00000E-01 8.00000E+00
 -1        32 0.00000E+00 2.50000E-01 8.00000E+00
 -1        44 1.00000E+00 0.00000E+00 6.00000E+00
 -1        45 1.00000E+00 0.00000E+00 6.50000E+00
 -1        46 1.00000E+00 0.00000E+00 7.00000E+00
 -1        47 1.00000E+00 0.00000E+00 7.50000E+00
 -1        48 0.00000E+00 0.00000E+00 7.50000E+00
 -1        49 0.00000E+00 0.00000E+00 7.00000E+00
 -1        50 0.00000E+00 0.00000E+00 6.50000E+00
 -1        51 0.00000E+00 0.00000E+00 6.00000E+00
 -1        74 1.00000E+00 1.00000E+00 6.00000E+00
 -1        75 1.00000E+00 1.00000E+00 6.50000E+00
 -1        76 1.00000E+00 1.00000E+00 7.00000E+00
 -1        77 1.00000E+00 1.00000E+00 7.50000E+00
 -1        89 0.00000E+00 1.00000E+00 6.00000E+00
 -1        90 0.00000E+00 1.00000E+00 6.50000E+00
 -1        91 0.00000E+00 1.00000E+00 7.00000E+00
 -1        92 0.00000E+00 1.00000E+00 7.50000E+00
 -1        98 5.00000E-01 2.50000E-01 8.00000E+00
 -1        99 2.50000E-01 5.00000E-01 8.00000E+00
 -1       100 5.00000E-01 5.00000E-01 8.00000E+00
 -1       101 7.50000E-01 5.00000E-01 8.00000E+00
 -1       102 5.00000E-01 7.50000E-01 8.00000E+00
 -1       124 2.50000E-01 0.00000E+00 6.00000E+00
 -1       125 5.00000E-01 0.00000E+00 6.00000E+00
 -1       126 7.50000E-01 0.00000E+00 6.00000E+00
 -1       127 5.00000E-01 0.00000E+00 6.50000E+00
 -1       128 2.50000E-01 0.00000E+00 7.00000E+00
 -1       129 5.00000E-01 0.00000E+00 7.00000E+00
 -1       130 7.50000E-01 0.00000E+00 7.00000E+00
 -1       131 5.00000E-01 0.00000E+00 7.50000E+00
 -1       153 1.00000E+00 2.50000E-01 6.00000E+00
 -1       154 1.00000E+00 5.00000E-01 6.00000E+00
 -1       155 1.00000E+00 7.50000E-01 6.00000E+00
 -1       156 1.00000E+00 5.00000E-01 6.50000E+00
 -1       157 1.00000E+00 2.50000E-01 7.00000E+00
 -1       158 1.00000E+00 5.00000E-01 7.00000E+00
 -1       159 1.00000E+00 7.50000E-01 7.00000E+00
 -1       160 1.00000E+00 5.00000E-01 7.50000E+00
 -1       182 7.50000E-01 1.00000E+00 6.00000E+00
 -1       183 5.00000E-01 1.00000E+00 6.00000E+00
 -1       184 2.50000E-01 1.00000E+00 6.00000E+00
 -1       185 5.00000E-01 1.00000E+00 6.50000E+00
 -1       186 7.50000E-01 1.00000E+00 7.00000E+00
 -1       187 5.00000E-01 1.00000E+00 7.00000E+00
 -1       188 2.50000E-01 1.00000E+00 7.00000E+00
 -1       189 5.00000E-01 1.00000E+00 7.50000E+00
 -1       211 0.00000E+00 7.50000E-01 6.00000E+00
 -1       212 0.00000E+00 5.00000E-01 6.00000E+00
 -1       213 0.00000E+00 2.50000E-01 6.00000E+00
 -1       214 0.00000E+00 5.00000E-01 6.50000E+00
 -1       215 0.00000E+00 7.50000E-01 7.00000E+00
 -1       216 0.00000E+00 5.00000E-01 7.00000E+00
 -1       217 0.00000E+00 2.50000E-01 7.00000E+00
 -1       218 0.00000E+00 5.00000E-01 7.50000E+00
 -1       250 5.00000E-01 2.50000E-01 6.00000E+00
 -1       251 2.50000E-01 5.00000E-01 6.00000E+00
 -1       252 5.00000E-01 5.00000E-01 6.00000E+00
 -1       253 7.50000E-01 5.00000E-01 6.00000E+00
 -1       254 5.00000E-01 7.50000E-01 6.00000E+00
 -1       255 5.00000E-01 5.00000E-01 6.50000E+00
 -1       256 5.00000E-01 2.50000E-01 7.00000E+00
 -1       257 2.50000E-01 5.00000E-01 7.00000E+00
 -1       258 5.00000E-01 5.00000E-01 7.00000E+00
 -1       259 7.50000E-01 5.00000E-01 7.00000E+00
 -1       260 5.00000E-01 7.50000E-01 7.00000E+00
 -1       261 5.00000E-01 5.00000E-01 7.50000E+00
 -3
    3C                             8                                     1
 -1        25    4    0    1
 -2        51       125       252       212        49       129       258       216       124       250
 -2       251       213        50       127       255       214       128       256       257       217
 -1        26    4    0    1
 -2       125        44       154       252       129        46       158       258       126       153
 -2       253       250       127        45       156       255       130       157       259       256
 -1        27    4    0    1
 -2       212       252       183        89       216       258       187        91       251       254
 -2       184       211       214       255       185        90       257       260       188       215
 -1        28    4    0    1
 -2       252       154        74       183       258       158        76       187       253       155
 -2       182       254       255       156        75       185       259       159       186       260
 -1        29    4    0    1
 -2        49       129       258       216         5        22       100        31       128       256
 -2       257       217        48       131       261       218        21        98        99        32
 -1        30    4    0    1
 -2       129        46       158       258        22         6        25       100       130       157
 -2       259       256       131        47       160       261        23        24       101        98
 -1        31    4    0    1
 -2       216       258       187        91        31       100        28         8       257       260
 -2       188       215       218       261       189        92        99       102        29        30
 -1        32    4    0    1
 -2       258       158        76       187       100        25         7        28       259       159
 -2       186       260       261       160        77       189       101        26        27       102
 -3
    1PSTEP                         1           1           1          
  100CL  101 5.00000E-03          81                     1    1           1
 -4  DISP        4    1
 -5  D1          1    2    1    0
 -5  D2          1    2    2    0
 -5  D3          1    2    3    0
 -5  ALL         1    2    0    0    1ALL
 -1         5 0.00000E+00 0.00000E+00 0.00000E+00
 -1         6 0.00000E+00 0.00000E+00 0.00000E+00
 -1         7 0.00000E+00 0.00000E+00 0.00000E+00
 -1         8 0.00000E+00 0.00000E+00 0.00000E+00
 -1        21 0.00000E+00 0.00000E+00 0.00000E+00
 -1        22 0.00000E+00 0.00000E+00 0.00000E+00
 -1        23 0.00000E+00 0.00000E+00 0.00000E+00
 -1        24 0.00000E+00 0.00000E+00 0.00000E+00
 -1        25 0.00000E+00 0.00000E+00 0.00000E+00
 -1        26 0.00000E+00 0.00000E+00 0.00000E+00
 -1        27 0.00000E+00 0.00000E+00 0.00000E+00
 -1        28 0.00000E+00 0.00000E+00 0.00000E+00
 -1        29 0.00000E+00 0.00000E+00 0.00000E+00
 -1        30 0.00000E+00 0.00000E+00 0.00000E+00
 -1        31 0.00000E+00 0.00000E+00 0.00000E+00
 -1        32 0.00000E+00 0.00000E+00 0.00000E+00
 -1        44-6.03460E-05-3.46622E-03 4.48536E-04
 -1        45 5.67236E-05-2.56241E-03 7.86009E-04
 -1        46-4.76239E-05-1.79534E-03 9.49082E-04
 -1        47 1.31015E-04-6.74899E-04 5.43026E-04
 -1        48-1.31020E-04-6.74899E-04 5.43030E-04
 -1        49 4.76248E-05-1.79533E-03 9.49083E-04
 -1        50-5.67348E-05-2.56242E-03 7.85995E-04
 -1        51 6.04000E-05-3.46619E-03 4.48478E-04
 -1        74 3.20201E-04-4.41419E-03-4.94206E-04
 -1        75 1.91801E-04-2.97317E-03-7.84639E-04
 -1        76-1.10815E-04-1.59687E-03-9.49961E-04
 -1        77-2.08045E-04-5.26362E-04-5.58166E-04
 -1        89-3.20130E-04-4.41424E-03-4.94294E-04
 -1        90-1.91813E-04-2.97317E-03-7.84663E-04
 -1        91 1.10817E-04-1.59688E-03-9.49960E-04
 -1        92 2.08039E-04-5.26362E-04-5.58162E-04
 -1        98 0.00000E+00 0.00000E+00 0.00000E+00
 -1        99 0.00000E+00 0.00000E+00 0.00000E+00
 -1       100 0.00000E+00 0.00000E+00 0.00000E+00
 -1       101 0.00000E+00 0.00000E+00 0.00000E+00
 -1       102 0.00000E+00 0.00000E+00 0.00000E+00
 -1       124 1.48414E-04-2.96609E-03 4.29342E-04
 -1       125-1.71904E-09-3.58876E-03 4.49071E-04
 -1       126-1.48391E-04-2.96610E-03 4.29346E-04
 -1       127 6.80865E-09-2.56222E-03 9.03511E-04
 -1       128-8.88311E-06-1.95276E-03 9.48149E-04
 -1       129-9.45578E-09-1.81466E-03 9.41458E-04
 -1       130 8.87412E-06-1.95276E-03 9.48154E-04
 -1       131-2.13661E-09-7.36450E-04 5.56360E-04
 -1       153 7.03433E-05-3.63561E-03 1.90948E-04
 -1       154-1.20177E-04-2.50299E-03-2.03743E-05
 -1       155-6.54210E-05-3.88891E-03-2.37903E-04
 -1       156-1.20459E-04-2.78903E-03-6.45006E-05
 -1       157-2.05836E-05-1.50902E-03 3.92372E-04
 -1       158 8.85357E-05-1.56706E-03-2.95340E-05
 -1       159 4.68027E-05-1.47551E-03-4.11066E-04
 -1       160 3.98797E-05-6.56536E-04 4.85316E-06
 -1       182 1.14373E-04-2.56164E-03-4.71031E-04
 -1       183 4.03073E-09-4.35509E-03-4.75960E-04
 -1       184-1.14338E-04-2.56166E-03-4.71049E-04
 -1       185 5.35070E-09-2.83305E-03-8.73362E-04
 -1       186-4.40470E-05-2.16240E-03-9.82616E-04
 -1       187-8.75991E-09-1.83171E-03-9.63694E-04
 -1       188 4.40395E-05-2.16241E-03-9.82622E-04
 -1       189-2.16284E-09-7.19870E-04-5.64527E-04
 -1       211 6.55311E-05-3.88893E-03-2.37975E-04
 -1       212 1.20318E-04-2.50299E-03-2.04650E-05
 -1       213-7.02431E-05-3.63560E-03 1.90890E-04
 -1       214 1.20427E-04-2.78903E-03-6.45276E-05
 -1       215-4.67918E-05-1.47552E-03-4.11069E-04
 -1       216-8.85149E-05-1.56706E-03-2.95306E-05
 -1       217 2.05942E-05-1.50902E-03 3.92370E-04
 -1       218-3.98870E-05-6.56536E-04 4.86545E-06
 -1       250-1.02113E-08-4.08222E-03 1.75056E-04
 -1       251 3.04178E-05-2.57206E-03-1.00552E-05
 -1       252-1.62901E-08-3.12271E-03-1.52712E-05
 -1       253-3.03702E-05-2.57206E-03-1.00843E-05
 -1       254-6.03647E-09-4.41290E-03-2.53768E-04
 -1       255 1.56360E-08-2.59923E-03-3.20504E-05
 -1       256-1.36136E-08-1.60715E-03 3.95559E-04
 -1       257-4.11924E-05-1.74923E-03-1.20180E-05
 -1       258-1.83646E-08-1.79022E-03-1.45502E-05
 -1       259 4.11847E-05-1.74923E-03-1.20028E-05
 -1       260-1.36252E-08-1.62233E-03-4.18216E-04
 -1       261 5.21009E-11-7.17055E-04-1.96581E-06
 -3
    1PSTEP                         2           2           1          
  100CL  102 1.00000E-02          81                     1    2           1
 -4  DISP        4    1
 -5  D1          1    2    1    0
 -5  D2          1    2    2    0
 -5  D3          1    2    3    0
 -5  ALL         1    2    0    0    1ALL
 -1         5 0.00000E+00 0.00000E+00 0.00000E+00
 -1         6 0.00000E+00 0.00000E+00 0.00000E+00
 -1         7 0.00000E+00 0.00000E+00 0.00000E+00
 -1         8 0.00000E+00 0.00000E+00 0.00000E+00
 -1        21 0.00000E+00 0.00000E+00 0.00000E+00
 -1        22 0.00000E+00 0.00000E+00 0.00000E+00
 -1        23 0.00000E+00 0.00000E+00 0.00000E+00
 -1        24 0.00000E+00 0.00000E+00 0.00000E+00
 -1        25 0.00000E+00 0.00000E+00 0.00000E+00
 -1        26 0.00000E+00 0.00000E+00 0.00000E+00
 -1        27 0.00000E+00 0.00000E+00 0.00000E+00
 -1        28 0.00000E+00 0.00000E+00 0.00000E+00
 -1        29 0.00000E+00 0.00000E+00 0.00000E+00
 -1        30 0.00000E+00 0.00000E+00 0.00000E+00
 -1        31 0.00000E+00 0.00000E+00 0.00000E+00
 -1        32 0.00000E+00 0.00000E+00 0.00000E+00
 -1        44-1.50702E-04 1.60737E-03-2.33742E-04
 -1        45-3.56014E-05 1.24811E-03-3.77081E-04
 -1        46 4.16452E-05 9.14243E-04-4.32346E-04
 -1        47-5.38964E-05 3.69887E-04-2.83876E-04
 -1        48 5.39017E-05 3.69860E-04-2.83828E-04
 -1        49-4.16085E-05 9.14208E-04-4.32290E-04
 -1        50 3.53918E-05 1.24815E-03-3.77091E-04
 -1        51 1.50335E-04 1.60773E-03-2.33732E-04
 -1        74 1.45791E-04 1.61266E-03 2.33978E-04
 -1        75 3.26322E-05 1.25093E-03 3.77169E-04
 -1        76-4.00086E-05 9.12944E-04 4.32441E-04
 -1        77 5.47357E-05 3.68974E-04 2.83905E-04
 -1        89-1.46226E-04 1.61231E-03 2.34109E-04
 -1        90-3.28883E-05 1.25086E-03 3.77221E-04
 -1        91 4.00429E-05 9.12955E-04 4.32476E-04
 -1        92-5.47458E-05 3.68996E-04 2.83953E-04
 -1        98 0.00000E+00 0.00000E+00 0.00000E+00
 -1        99 0.00000E+00 0.00000E+00 0.00000E+00
 -1       100 0.00000E+00 0.00000E+00 0.00000E+00
 -1       101 0.00000E+00 0.00000E+00 0.00000E+00
 -1       102 0.00000E+00 0.00000E+00 0.00000E+00
 -1       124 4.43262E-06 1.47957E-03-2.20230E-04
 -1       125-2.33591E-07 1.76643E-03-2.31098E-04
 -1       126-4.78290E-06 1.47952E-03-2.20265E-04
 -1       127-4.61054E-08 1.30065E-03-4.17208E-04
 -1       128-3.54069E-06 9.58967E-04-4.63320E-04
 -1       129-3.97718E-08 8.89556E-04-4.72029E-04
 -1       130 3.50241E-06 9.58958E-04-4.63337E-04
 -1       131 1.11693E-08 3.75538E-04-2.76016E-04
 -1       153 1.23609E-04 1.91461E-03-1.03812E-04
 -1       154-1.19799E-06 1.69052E-03-1.22907E-07
 -1       155-1.22360E-04 1.91651E-03 1.03936E-04
 -1       156 1.36838E-07 1.40637E-03 3.09516E-07
 -1       157-2.46712E-05 7.92759E-04-1.86082E-04
 -1       158-1.43436E-07 8.09237E-04 1.53752E-07
 -1       159 2.40983E-05 7.92361E-04 1.86110E-04
 -1       160-5.42216E-08 3.08288E-04 9.43510E-09
 -1       182 2.88316E-06 1.47785E-03 2.20468E-04
 -1       183-3.28122E-07 1.76887E-03 2.31353E-04
 -1       184-3.35502E-06 1.47783E-03 2.20527E-04
 -1       185-4.89798E-08 1.30084E-03 4.16829E-04
 -1       186-2.98224E-06 9.59945E-04 4.63510E-04
 -1       187-6.55793E-08 8.90314E-04 4.71963E-04
 -1       188 2.91688E-06 9.59918E-04 4.63525E-04
 -1       189 8.10728E-09 3.75782E-04 2.76050E-04
 -1       211 1.22048E-04 1.91625E-03 1.04118E-04
 -1       212 8.18970E-07 1.69056E-03-3.58543E-08
 -1       213-1.23875E-04 1.91490E-03-1.03665E-04
 -1       214-1.52896E-07 1.40634E-03 4.24706E-07
 -1       215-2.41695E-05 7.92389E-04 1.86149E-04
 -1       216 7.04089E-09 8.09236E-04 2.21468E-07
 -1       217 2.45984E-05 7.92719E-04-1.86042E-04
 -1       218 5.05069E-08 3.08282E-04 7.44156E-09
 -1       250-6.03252E-08 1.90954E-03-1.03030E-04
 -1       251 1.06829E-07 1.20871E-03-1.27625E-08
 -1       252 1.44462E-07 1.54342E-03 4.31471E-08
 -1       253-1.81829E-07 1.20869E-03 6.92409E-08
 -1       254-1.17334E-07 1.90991E-03 1.03302E-04
 -1       255-8.32950E-08 1.37466E-03 1.33896E-07
 -1       256-2.71780E-09 7.83331E-04-2.07074E-04
 -1       257 1.21332E-07 9.13652E-04 8.10996E-08
 -1       258 2.82413E-08 8.12390E-04 7.68283E-08
 -1       259-1.48106E-07 9.13654E-04 1.69915E-08
 -1       260-1.35931E-08 7.83867E-04 2.07226E-04
 -1       261-2.13753E-08 3.48298E-04-1.34560E-08
 -3
    1PSTEP                         3           3           1          
  100CL  103 1.50000E-02          81                     1    3           1
 -4  DISP        4    1
 -5  D1          1    2    1    0
 -5  D2          1    2    2    0
 -5  D3          1    2    3    0
 -5  ALL         1    2    0    0    1ALL
 -1         5 0.00000E+00 0.00000E+00 0.00000E+00
 -1         6 0.00000E+00 0.00000E+00 0.00000E+00
 -1         7 0.00000E+00 0.00000E+00 0.00000E+00
 -1         8 0.00000E+00 0.00000E+00 0.00000E+00
 -1        21 0.00000E+00 0.00000E+00 0.00000E+00
 -1        22 0.00000E+00 0.00000E+00 0.00000E+00
 -1        23 0.00000E+00 0.00000E+00 0.00000E+00
 -1        24 0.00000E+00 0.00000E+00 0.00000E+00
 -1        25 0.00000E+00 0.00000E+00 0.00000E+00
 -1        26 0.00000E+00 0.00000E+00 0.00000E+00
 -1        27 0.00000E+00 0.00000E+00 0.00000E+00
 -1        28 0.00000E+00 0.00000E+00 0.00000E+00
 -1        29 0.00000E+00 0.00000E+00 0.00000E+00
 -1        30 0.00000E+00 0.00000E+00 0.00000E+00
 -1        31 0.00000E+00 0.00000E+00 0.00000E+00
 -1        32 0.00000E+00 0.00000E+00 0.00000E+00
 -1        44 1.24530E-04-1.27041E-03 1.85484E-04
 -1        45 2.98490E-05-9.87938E-04 2.98734E-04
 -1        46-3.37957E-05-7.24872E-04 3.42236E-04
 -1        47 4.22128E-05-2.93711E-04 2.25145E-04
 -1        48-4.22062E-05-2.93690E-04 2.25109E-04
 -1        49 3.37673E-05-7.24860E-04 3.42221E-04
 -1        50-2.96386E-05-9.88013E-04 2.98716E-04
 -1        51-1.24217E-04-1.27073E-03 1.85436E-04
 -1        74-1.18727E-04-1.27569E-03-1.85471E-04
 -1        75-2.66271E-05-9.90916E-04-2.98786E-04
 -1        76 3.25068E-05-7.23681E-04-3.42245E-04
 -1        77-4.30717E-05-2.92879E-04-2.25105E-04
 -1        89 1.18985E-04-1.27538E-03-1.85489E-04
 -1        90 2.68283E-05-9.90860E-04-2.98790E-04
 -1        91-3.25497E-05-7.23703E-04-3.42274E-04
 -1        92 4.30722E-05-2.92904E-04-2.25146E-04
 -1        98 0.00000E+00 0.00000E+00 0.00000E+00
 -1        99 0.00000E+00 0.00000E+00 0.00000E+00
 -1       100 0.00000E+00 0.00000E+00 0.00000E+00
 -1       101 0.00000E+00 0.00000E+00 0.00000E+00
 -1       102 0.00000E+00 0.00000E+00 0.00000E+00
 -1       124-6.64758E-06-1.17348E-03 1.74771E-04
 -1       125 2.52785E-07-1.39996E-03 1.83298E-04
 -1       126 6.99510E-06-1.17345E-03 1.74801E-04
 -1       127 3.69525E-08-1.03132E-03 3.30885E-04
 -1       128 3.36150E-06-7.59600E-04 3.67182E-04
 -1       129 5.58714E-08-7.04923E-04 3.74391E-04
 -1       130-3.30473E-06-7.59578E-04 3.67183E-04
 -1       131-6.22797E-09-2.97516E-04 2.18705E-04
 -1       153-1.01101E-04-1.51639E-03 8.24276E-05
 -1       154 1.26015E-06-1.34537E-03-1.79337E-09
 -1       155 9.92264E-05-1.52139E-03-8.23642E-05
 -1       156 4.25656E-08-1.11489E-03-2.96979E-07
 -1       157 2.03074E-05-6.29049E-04 1.47407E-04
 -1       158-2.00391E-07-6.41567E-04-7.53410E-08
 -1       159-1.98150E-05-6.27942E-04-1.47340E-04
 -1       160-3.03752E-10-2.43946E-04-2.29198E-09
 -1       182-1.69334E-06-1.17185E-03-1.74786E-04
 -1       183 2.34209E-07-1.40151E-03-1.83342E-04
 -1       184 1.99666E-06-1.17183E-03-1.74848E-04
 -1       185 2.32826E-08-1.03096E-03-3.30266E-04
 -1       186 2.25233E-06-7.59977E-04-3.67231E-04
 -1       187 5.19045E-08-7.04761E-04-3.74169E-04
 -1       188-2.20693E-06-7.59960E-04-3.67230E-04
 -1       189-9.02044E-09-2.97643E-04-2.18708E-04
 -1       211-9.91034E-05-1.52115E-03-8.24263E-05
 -1       212-1.07461E-06-1.34538E-03-3.54141E-08
 -1       213 1.01255E-04-1.51665E-03 8.23734E-05
 -1       214-1.73084E-08-1.11490E-03-3.79401E-07
 -1       215 1.98622E-05-6.27976E-04-1.47375E-04
 -1       216 2.97463E-07-6.41571E-04-1.27826E-07
 -1       217-2.02538E-05-6.29024E-04 1.47373E-04
 -1       218 8.39854E-09-2.43949E-04-1.81707E-09
 -1       250 7.80899E-08-1.51437E-03 8.16767E-05
 -1       251 1.45924E-06-9.57542E-04 6.47274E-08
 -1       252-1.36658E-07-1.22261E-03-4.95069E-08
 -1       253-1.46694E-06-9.57540E-04 3.35342E-08
 -1       254 6.79261E-08-1.51124E-03-8.18740E-05
 -1       255 5.35109E-08-1.09011E-03 8.72427E-09
 -1       256 1.65138E-08-6.20151E-04 1.64284E-04
 -1       257-3.16409E-07-7.24510E-04-1.95101E-08
 -1       258-1.42830E-08-6.43111E-04-2.01753E-09
 -1       259 3.37805E-07-7.24507E-04 1.91447E-08
 -1       260 1.45433E-08-6.20924E-04-1.64302E-04
 -1       261 1.91752E-08-2.75987E-04 4.74660E-09
 -3
    1PSTEP                         4           4           1          
  100CL  104 2.00000E-02          81                     1    4           1
 -4  DISP        4    1
 -5  D1          1    2    1    0
 -5  D2          1    2    2    0
 -5  D3          1    2    3    0
 -5  ALL         1    2    0    0    1ALL
 -1         5 0.00000E+00 0.00000E+00 0.00000E+00
 -1         6 0.00000E+00 0.00000E+00 0.00000E+00
 -1         7 0.00000E+00 0.00000E+00 0.00000E+00
 -1         8 0.00000E+00 0.00000E+00 0.00000E+00
 -1        21 0.00000E+00 0.00000E+00 0.00000E+00
 -1        22 0.00000E+00 0.00000E+00 0.00000E+00
 -1        23 0.00000E+00 0.00000E+00 0.00000E+00
 -1        24 0.00000E+00 0.00000E+00 0.00000E+00
 -1        25 0.00000E+00 0.00000E+00 0.00000E+00
 -1        26 0.00000E+00 0.00000E+00 0.00000E+00
 -1        27 0.00000E+00 0.00000E+00 0.00000E+00
 -1        28 0.00000E+00 0.00000E+00 0.00000E+00
 -1        29 0.00000E+00 0.00000E+00 0.00000E+00
 -1        30 0.00000E+00 0.00000E+00 0.00000E+00
 -1        31 0.00000E+00 0.00000E+00 0.00000E+00
 -1        32 0.00000E+00 0.00000E+00 0.00000E+00
 -1        44-9.71178E-05 9.86140E-04-1.44085E-04
 -1        45-2.31487E-05 7.66872E-04-2.32063E-04
 -1        46 2.63402E-05 5.62983E-04-2.65649E-04
 -1        47-3.27288E-05 2.28108E-04-1.74830E-04
 -1        48 3.27248E-05 2.28100E-04-1.74811E-04
 -1        49-2.63303E-05 5.62974E-04-2.65633E-04
 -1        50 2.30476E-05 7.66909E-04-2.32055E-04
 -1        51 9.69751E-05 9.86254E-04-1.44053E-04
 -1        74 9.39649E-05 9.88550E-04 1.44026E-04
 -1        75 2.14882E-05 7.68383E-04 2.32042E-04
 -1        76-2.56779E-05 5.62358E-04 2.65668E-04
 -1        77 3.31822E-05 2.27704E-04 1.74819E-04
 -1        89-9.40610E-05 9.88453E-04 1.44038E-04
 -1        90-2.15900E-05 7.68360E-04 2.32045E-04
 -1        91 2.57016E-05 5.62371E-04 2.65691E-04
 -1        92-3.31833E-05 2.27716E-04 1.74843E-04
 -1        98 0.00000E+00 0.00000E+00 0.00000E+00
 -1        99 0.00000E+00 0.00000E+00 0.00000E+00
 -1       100 0.00000E+00 0.00000E+00 0.00000E+00
 -1       101 0.00000E+00 0.00000E+00 0.00000E+00
 -1       102 0.00000E+00 0.00000E+00 0.00000E+00
 -1       124 4.77705E-06 9.11181E-04-1.35762E-04
 -1       125-1.13757E-07 1.08690E-03-1.42423E-04
 -1       126-4.93775E-06 9.11178E-04-1.35790E-04
 -1       127-2.03145E-08 8.00875E-04-2.56818E-04
 -1       128-2.50798E-06 5.89662E-04-2.85102E-04
 -1       129-2.55446E-08 5.47093E-04-2.90727E-04
 -1       130 2.48144E-06 5.89656E-04-2.85104E-04
 -1       131 2.61946E-09 2.30939E-04-1.69777E-04
 -1       153 7.88934E-05 1.17878E-03-6.40259E-05
 -1       154-7.92576E-07 1.04584E-03-3.27434E-08
 -1       155-7.78718E-05 1.18117E-03 6.39976E-05
 -1       156-9.12263E-08 8.65418E-04 1.36755E-07
 -1       157-1.58533E-05 4.88395E-04-1.14409E-04
 -1       158 1.52725E-07 4.98359E-04 3.59005E-08
 -1       159 1.55798E-05 4.87828E-04 1.14360E-04
 -1       160 1.98579E-08 1.89348E-04 8.35700E-09
 -1       182 2.08755E-06 9.10456E-04 1.35773E-04
 -1       183-1.12940E-07 1.08756E-03 1.42436E-04
 -1       184-2.22523E-06 9.10465E-04 1.35829E-04
 -1       185-8.28041E-09 8.00547E-04 2.56535E-04
 -1       186-1.92469E-06 5.89820E-04 2.85120E-04
 -1       187-2.65654E-08 5.47096E-04 2.90604E-04
 -1       188 1.90405E-06 5.89815E-04 2.85119E-04
 -1       189 4.72959E-09 2.31025E-04 1.69774E-04
 -1       211 7.77896E-05 1.18109E-03 6.40507E-05
 -1       212 6.44727E-07 1.04585E-03 3.13870E-09
 -1       213-7.89998E-05 1.17889E-03-6.39765E-05
 -1       214 8.55644E-08 8.65422E-04 1.82526E-07
 -1       215-1.56041E-05 4.87845E-04 1.14378E-04
 -1       216-2.08972E-07 4.98363E-04 6.05466E-08
 -1       217 1.58224E-05 4.88384E-04-1.14391E-04
 -1       218-2.25375E-08 1.89350E-04 6.01311E-09
 -1       250-3.77873E-08 1.17431E-03-6.35329E-05
 -1       251-7.12172E-07 7.43443E-04-5.74693E-08
 -1       252 5.44862E-08 9.48588E-04 1.85770E-08
 -1       253 6.80707E-07 7.43436E-04-1.78577E-08
 -1       254-3.81307E-08 1.17272E-03 6.35647E-05
 -1       255-3.38385E-08 8.46613E-04-1.30128E-08
 -1       256-5.94693E-09 4.81476E-04-1.27603E-04
 -1       257 1.36197E-07 5.62541E-04 1.31456E-08
 -1       258 1.04416E-08 4.98989E-04 8.00790E-10
 -1       259-1.48564E-07 5.62539E-04-1.29139E-08
 -1       260-6.23121E-09 4.81897E-04 1.27625E-04
 -1       261-9.01627E-09 2.14233E-04-9.45706E-09
 -3
    1PSTEP                         5           5           1          
  100CL  105 2.50000E-02          81                     1    5           1
 -4  DISP        4    1
 -5  D1          1    2    1    0
 -5  D2          1    2    2    0
 -5  D3          1    2    3    0
 -5  ALL         1    2    0    0    1ALL
 -1         5 0.00000E+00 0.00000E+00 0.00000E+00
 -1         6 0.00000E+00 0.00000E+00 0.00000E+00
 -1         7 0.00000E+00 0.00000E+00 0.00000E+00
 -1         8 0.00000E+00 0.00000E+00 0.00000E+00
 -1        21 0.00000E+00 0.00000E+00 0.00000E+00
 -1        22 0.00000E+00 0.00000E+00 0.00000E+00
 -1        23 0.00000E+00 0.00000E+00 0.00000E+00
 -1        24 0.00000E+00 0.00000E+00 0.00000E+00
 -1        25 0.00000E+00 0.00000E+00 0.00000E+00
 -1        26 0.00000E+00 0.00000E+00 0.00000E+00
 -1        27 0.00000E+00 0.00000E+00 0.00000E+00
 -1        28 0.00000E+00 0.00000E+00 0.00000E+00
 -1        29 0.00000E+00 0.00000E+00 0.00000E+00
 -1        30 0.00000E+00 0.00000E+00 0.00000E+00
 -1        31 0.00000E+00 0.00000E+00 0.00000E+00
 -1        32 0.00000E+00 0.00000E+00 0.00000E+00
 -1        44 7.63701E-05-7.42092E-04 1.08728E-04
 -1        45 1.87455E-05-5.77975E-04 1.75121E-04
 -1        46-2.04081E-05-4.25208E-04 2.00389E-04
 -1        47 2.43357E-05-1.72549E-04 1.32032E-04
 -1        48-2.43291E-05-1.72543E-04 1.32020E-04
 -1        49 2.04290E-05-4.25216E-04 2.00373E-04
 -1        50-1.86895E-05-5.77962E-04 1.75090E-04
 -1        51-7.62549E-05-7.42180E-04 1.08713E-04
 -1        74-7.12164E-05-7.47148E-04-1.08730E-04
 -1        75-1.58593E-05-5.80752E-04-1.75186E-04
 -1        76 1.94425E-05-4.24264E-04-2.00371E-04
 -1        77-2.51067E-05-1.71778E-04-1.32004E-04
 -1        89 7.13076E-05-7.47088E-04-1.08746E-04
 -1        90 1.59163E-05-5.80745E-04-1.75217E-04
 -1        91-1.94184E-05-4.24262E-04-2.00372E-04
 -1        92 2.51148E-05-1.71784E-04-1.32007E-04
 -1        98 0.00000E+00 0.00000E+00 0.00000E+00
 -1        99 0.00000E+00 0.00000E+00 0.00000E+00
 -1       100 0.00000E+00 0.00000E+00 0.00000E+00
 -1       101 0.00000E+00 0.00000E+00 0.00000E+00
 -1       102 0.00000E+00 0.00000E+00 0.00000E+00
 -1       124-6.22641E-06-6.88519E-04 1.02520E-04
 -1       125 5.96146E-08-8.20192E-04 1.07481E-04
 -1       126 6.33625E-06-6.88487E-04 1.02522E-04
 -1       127 2.38766E-08-6.04752E-04 1.94058E-04
 -1       128 2.41476E-06-4.44903E-04 2.15198E-04
 -1       129 1.33660E-08-4.13129E-04 2.19644E-04
 -1       130-2.38978E-06-4.44895E-04 2.15207E-04
 -1       131 2.33790E-09-1.74243E-04 1.28129E-04
 -1       153-6.11315E-05-8.88103E-04 4.83867E-05
 -1       154 9.74081E-07-7.91642E-04-1.78107E-08
 -1       155 5.93916E-05-8.94152E-04-4.83409E-05
 -1       156-9.11032E-10-6.53342E-04-2.81637E-07
 -1       157 1.23615E-05-3.69269E-04 8.63235E-05
 -1       158-2.43122E-07-3.76382E-04-8.80488E-08
 -1       159-1.19646E-05-3.68007E-04-8.62731E-05
 -1       160 2.37586E-08-1.42797E-04 8.00340E-09
 -1       182-3.27304E-07-6.86883E-04-1.02504E-04
 -1       183 4.98128E-08-8.21852E-04-1.07579E-04
 -1       184 4.17355E-07-6.86866E-04-1.02481E-04
 -1       185 2.86408E-08-6.04574E-04-1.93499E-04
 -1       186 1.16792E-06-4.45244E-04-2.15240E-04
 -1       187 1.48185E-08-4.12689E-04-2.19413E-04
 -1       188-1.14013E-06-4.45240E-04-2.15246E-04
 -1       189 3.12146E-09-1.74325E-04-1.28121E-04
 -1       211-5.93603E-05-8.94108E-04-4.83086E-05
 -1       212-9.72472E-07-7.91627E-04-3.56053E-08
 -1       213 6.11822E-05-8.88146E-04 4.83581E-05
 -1       214 7.09297E-08-6.53352E-04-3.05490E-07
 -1       215 1.19863E-05-3.68004E-04-8.62978E-05
 -1       216 2.55387E-07-3.76374E-04-1.12743E-07
 -1       217-1.23424E-05-3.69267E-04 8.63039E-05
 -1       218-1.23347E-08-1.42797E-04-8.02993E-09
 -1       250 4.74367E-08-8.87876E-04 4.78613E-05
 -1       251 2.08983E-06-5.61111E-04-4.56286E-08
 -1       252 3.26041E-08-7.15381E-04-6.36889E-08
 -1       253-2.04871E-06-5.61122E-04 2.15934E-08
 -1       254 4.25608E-08-8.83696E-04-4.80238E-05
 -1       255 1.43321E-08-6.39345E-04 1.03478E-08
 -1       256 1.66427E-08-3.62973E-04 9.63776E-05
 -1       257-4.26711E-07-4.24796E-04 1.52353E-08
 -1       258 2.04957E-08-3.76423E-04 5.15497E-09
 -1       259 4.51588E-07-4.24799E-04 1.42431E-08
 -1       260 1.75394E-08-3.63856E-04-9.63895E-05
 -1       261 3.69979E-09-1.61744E-04-3.16874E-09
 -3
    1PSTEP                         6           6           1          
  100CL  106 3.00000E-02          81                     1    6           1
 -4  DISP        4    1
 -5  D1          1    2    1    0
 -5  D2          1    2    2    0
 -5  D3          1    2    3    0
 -5  ALL         1    2    0    0    1ALL
 -1         5 0.00000E+00 0.00000E+00 0.00000E+00
 -1         6 0.00000E+00 0.00000E+00 0.00000E+00
 -1         7 0.00000E+00 0.00000E+00 0.00000E+00
 -1         8 0.00000E+00 0.00000E+00 0.00000E+00
 -1        21 0.00000E+00 0.00000E+00 0.00000E+00
 -1        22 0.00000E+00 0.00000E+00 0.00000E+00
 -1        23 0.00000E+00 0.00000E+00 0.00000E+00
 -1        24 0.00000E+00 0.00000E+00 0.00000E+00
 -1        25 0.00000E+00 0.00000E+00 0.00000E+00
 -1        26 0.00000E+00 0.00000E+00 0.00000E+00
 -1        27 0.00000E+00 0.00000E+00 0.00000E+00
 -1        28 0.00000E+00 0.00000E+00 0.00000E+00
 -1        29 0.00000E+00 0.00000E+00 0.00000E+00
 -1        30 0.00000E+00 0.00000E+00 0.00000E+00
 -1        31 0.00000E+00 0.00000E+00 0.00000E+00
 -1        32 0.00000E+00 0.00000E+00 0.00000E+00
 -1        44-5.36336E-05 5.39341E-04-7.88546E-05
 -1        45-1.28584E-05 4.19540E-04-1.26982E-04
 -1        46 1.45074E-05 3.08223E-04-1.45367E-04
 -1        47-1.78501E-05 1.24920E-04-9.56925E-05