    1C
    1UUSER                                                              
    1UDATE              15.july.2018                                    
    1UTIME              19:07:50                                        
    1UHOST                                                              
    1UPGM               CalculiX                                        
    1UVERSION           Version 2.13                             
    1UCOMPILETIME       jue jun 14 00:40:39 CEST 2018                    
    1UDIR                                                               
    1UDBN                                                               
    1UMAT    1EL                                                        
    2C                           201                                     1
 -1         1 0.00000E+00 0.00000E+00 0.00000E+00
 -1         2 1.00000E+00 0.00000E+00 0.00000E+00
 -1         3 1.00000E+00 1.00000E+00 0.00000E+00
 -1         4 0.00000E+00 1.00000E+00 0.00000E+00
 -1         9 2.50000E-01 0.00000E+00 0.00000E+00
 -1        10 5.00000E-01 0.00000E+00 0.00000E+00
 -1        11 7.50000E-01 0.00000E+00 0.00000E+00
 -1        12 1.00000E+00 2.50000E-01 0.00000E+00
 -1        13 1.00000E+00 5.00000E-01 0.00000E+00
 -1        14 1.00000E+00 7.50000E-01 0.00000E+00
 -1        15 7.50000E-01 1.00000E+00 0.00000E+00
 -1        16 5.00000E-01 1.00000E+00 0.00000E+00
 -1        17 2.50000E-01 1.00000E+00 0.00000E+00
 -1        18 0.00000E+00 7.50000E-01 0.00000E+00
 -1        19 0.00000E+00 5.00000E-01 0.00000E+00
 -1        20 0.00000E+00 2.50000E-01 0.00000E+00
 -1        33 1.00000E+00 0.00000E+00 5.00000E-01
 -1        34 1.00000E+00 0.00000E+00 1.00000E+00
 -1        35 1.00000E+00 0.00000E+00 1.50000E+00
 -1        36 1.00000E+00 0.00000E+00 2.00000E+00
 -1        37 1.00000E+00 0.00000E+00 2.50000E+00
 -1        38 1.00000E+00 0.00000E+00 3.00000E+00
 -1        39 1.00000E+00 0.00000E+00 3.50000E+00
 -1        40 1.00000E+00 0.00000E+00 4.00000E+00
 -1        41 1.00000E+00 0.00000E+00 4.50000E+00
 -1        42 1.00000E+00 0.00000E+00 5.00000E+00
 -1        43 1.00000E+00 0.00000E+00 5.50000E+00
 -1        44 1.00000E+00 0.00000E+00 6.00000E+00
 -1        51 0.00000E+00 0.00000E+00 6.00000E+00
 -1        52 0.00000E+00 0.00000E+00 5.50000E+00
 -1        53 0.00000E+00 0.00000E+00 5.00000E+00
 -1        54 0.00000E+00 0.00000E+00 4.50000E+00
 -1        55 0.00000E+00 0.00000E+00 4.00000E+00
 -1        56 0.00000E+00 0.00000E+00 3.50000E+00
 -1        57 0.00000E+00 0.00000E+00 3.00000E+00
 -1        58 0.00000E+00 0.00000E+00 2.50000E+00
 -1        59 0.00000E+00 0.00000E+00 2.00000E+00
 -1        60 0.00000E+00 0.00000E+00 1.50000E+00
 -1        61 0.00000E+00 0.00000E+00 1.00000E+00
 -1        62 0.00000E+00 0.00000E+00 5.00000E-01
 -1        63 1.00000E+00 1.00000E+00 5.00000E-01
 -1        64 1.00000E+00 1.00000E+00 1.00000E+00
 -1        65 1.00000E+00 1.00000E+00 1.50000E+00
 -1        66 1.00000E+00 1.00000E+00 2.00000E+00
 -1        67 1.00000E+00 1.00000E+00 2.50000E+00
 -1        68 1.00000E+00 1.00000E+00 3.00000E+00
 -1        69 1.00000E+00 1.00000E+00 3.50000E+00
 -1        70 1.00000E+00 1.00000E+00 4.00000E+00
 -1        71 1.00000E+00 1.00000E+00 4.50000E+00
 -1        72 1.00000E+00 1.00000E+00 5.00000E+00
 -1        73 1.00000E+00 1.00000E+00 5.50000E+00
 -1        74 1.00000E+00 1.00000E+00 6.00000E+00
 -1        78 0.00000E+00 1.00000E+00 5.00000E-01
 -1        79 0.00000E+00 1.00000E+00 1.00000E+00
 -1        80 0.00000E+00 1.00000E+00 1.50000E+00
 -1        81 0.00000E+00 1.00000E+00 2.00000E+00
 -1        82 0.00000E+00 1.00000E+00 2.50000E+00
 -1        83 0.00000E+00 1.00000E+00 3.00000E+00
 -1        84 0.00000E+00 1.00000E+00 3.50000E+00
 -1        85 0.00000E+00 1.00000E+00 4.00000E+00
 -1        86 0.00000E+00 1.00000E+00 4.50000E+00
 -1        87 0.00000E+00 1.00000E+00 5.00000E+00
 -1        88 0.00000E+00 1.00000E+00 5.50000E+00
 -1        89 0.00000E+00 1.00000E+00 6.00000E+00
 -1        93 5.00000E-01 2.50000E-01 0.00000E+00
 -1        94 2.50000E-01 5.00000E-01 0.00000E+00
 -1        95 5.00000E-01 5.00000E-01 0.00000E+00
 -1        96 7.50000E-01 5.00000E-01 0.00000E+00
 -1        97 5.00000E-01 7.50000E-01 0.00000E+00
 -1       103 5.00000E-01 0.00000E+00 5.00000E-01
 -1       104 2.50000E-01 0.00000E+00 1.00000E+00
 -1       105 5.00000E-01 0.00000E+00 1.00000E+00
 -1       106 7.50000E-01 0.00000E+00 1.00000E+00
 -1       107 5.00000E-01 0.00000E+00 1.50000E+00
 -1       108 2.50000E-01 0.00000E+00 2.00000E+00
 -1       109 5.00000E-01 0.00000E+00 2.00000E+00
 -1       110 7.50000E-01 0.00000E+00 2.00000E+00
 -1       111 5.00000E-01 0.00000E+00 2.50000E+00
 -1       112 2.50000E-01 0.00000E+00 3.00000E+00
 -1       113 5.00000E-01 0.00000E+00 3.00000E+00
 -1       114 7.50000E-01 0.00000E+00 3.00000E+00
 -1       115 5.00000E-01 0.00000E+00 3.50000E+00
 -1       116 2.50000E-01 0.00000E+00 4.00000E+00
 -1       117 5.00000E-01 0.00000E+00 4.00000E+00
 -1       118 7.50000E-01 0.00000E+00 4.00000E+00
 -1       119 5.00000E-01 0.00000E+00 4.50000E+00
 -1       120 2.50000E-01 0.00000E+00 5.00000E+00
 -1       121 5.00000E-01 0.00000E+00 5.00000E+00
 -1       122 7.50000E-01 0.00000E+00 5.00000E+00
 -1       123 5.00000E-01 0.00000E+00 5.50000E+00
 -1       124 2.50000E-01 0.00000E+00 6.00000E+00
 -1       125 5.00000E-01 0.00000E+00 6.00000E+00
 -1       126 7.50000E-01 0.00000E+00 6.00000E+00
 -1       132 1.00000E+00 5.00000E-01 5.00000E-01
 -1       133 1.00000E+00 2.50000E-01 1.00000E+00
 -1       134 1.00000E+00 5.00000E-01 1.00000E+00
 -1       135 1.00000E+00 7.50000E-01 1.00000E+00
 -1       136 1.00000E+00 5.00000E-01 1.50000E+00
 -1       137 1.00000E+00 2.50000E-01 2.00000E+00
 -1       138 1.00000E+00 5.00000E-01 2.00000E+00
 -1       139 1.00000E+00 7.50000E-01 2.00000E+00
 -1       140 1.00000E+00 5.00000E-01 2.50000E+00
 -1       141 1.00000E+00 2.50000E-01 3.00000E+00
 -1       142 1.00000E+00 5.00000E-01 3.00000E+00
 -1       143 1.00000E+00 7.50000E-01 3.00000E+00
 -1       144 1.00000E+00 5.00000E-01 3.50000E+00
 -1       145 1.00000E+00 2.50000E-01 4.00000E+00
 -1       146 1.00000E+00 5.00000E-01 4.00000E+00
 -1       147 1.00000E+00 7.50000E-01 4.00000E+00
 -1       148 1.00000E+00 5.00000E-01 4.50000E+00
 -1       149 1.00000E+00 2.50000E-01 5.00000E+00
 -1       150 1.00000E+00 5.00000E-01 5.00000E+00
 -1       151 1.00000E+00 7.50000E-01 5.00000E+00
 -1       152 1.00000E+00 5.00000E-01 5.50000E+00
 -1       153 1.00000E+00 2.50000E-01 6.00000E+00
 -1       154 1.00000E+00 5.00000E-01 6.00000E+00
 -1       155 1.00000E+00 7.50000E-01 6.00000E+00
 -1       161 5.00000E-01 1.00000E+00 5.00000E-01
 -1       162 7.50000E-01 1.00000E+00 1.00000E+00
 -1       163 5.00000E-01 1.00000E+00 1.00000E+00
 -1       164 2.50000E-01 1.00000E+00 1.00000E+00
 -1       165 5.00000E-01 1.00000E+00 1.50000E+00
 -1       166 7.50000E-01 1.00000E+00 2.00000E+00
 -1       167 5.00000E-01 1.00000E+00 2.00000E+00
 -1       168 2.50000E-01 1.00000E+00 2.00000E+00
 -1       169 5.00000E-01 1.00000E+00 2.50000E+00
 -1       170 7.50000E-01 1.00000E+00 3.00000E+00
 -1       171 5.00000E-01 1.00000E+00 3.00000E+00
 -1       172 2.50000E-01 1.00000E+00 3.00000E+00
 -1       173 5.00000E-01 1.00000E+00 3.50000E+00
 -1       174 7.50000E-01 1.00000E+00 4.00000E+00
 -1       175 5.00000E-01 1.00000E+00 4.00000E+00
 -1       176 2.50000E-01 1.00000E+00 4.00000E+00
 -1       177 5.00000E-01 1.00000E+00 4.50000E+00
 -1       178 7.50000E-01 1.00000E+00 5.00000E+00
 -1       179 5.00000E-01 1.00000E+00 5.00000E+00
 -1       180 2.50000E-01 1.00000E+00 5.00000E+00
 -1       181 5.00000E-01 1.00000E+00 5.50000E+00
 -1       182 7.50000E-01 1.00000E+00 6.00000E+00
 -1       183 5.00000E-01 1.00000E+00 6.00000E+00
 -1       184 2.50000E-01 1.00000E+00 6.00000E+00
 -1       190 0.00000E+00 5.00000E-01 5.00000E-01
 -1       191 0.00000E+00 7.50000E-01 1.00000E+00
 -1       192 0.00000E+00 5.00000E-01 1.00000E+00
 -1       193 0.00000E+00 2.50000E-01 1.00000E+00
 -1       194 0.00000E+00 5.00000E-01 1.50000E+00
 -1       195 0.00000E+00 7.50000E-01 2.00000E+00
 -1       196 0.00000E+00 5.00000E-01 2.00000E+00
 -1       197 0.00000E+00 2.50000E-01 2.00000E+00
 -1       198 0.00000E+00 5.00000E-01 2.50000E+00
 -1       199 0.00000E+00 7.50000E-01 3.00000E+00
 -1       200 0.00000E+00 5.00000E-01 3.00000E+00
 -1       201 0.00000E+00 2.50000E-01 3.00000E+00
 -1       202 0.00000E+00 5.00000E-01 3.50000E+00
 -1       203 0.00000E+00 7.50000E-01 4.00000E+00
 -1       204 0.00000E+00 5.00000E-01 4.00000E+00
 -1       205 0.00000E+00 2.50000E-01 4.00000E+00
 -1       206 0.00000E+00 5.00000E-01 4.50000E+00
 -1       207 0.00000E+00 7.50000E-01 5.00000E+00
 -1       208 0.00000E+00 5.00000E-01 5.00000E+00
 -1       209 0.00000E+00 2.50000E-01 5.00000E+00
 -1       210 0.00000E+00 5.00000E-01 5.50000E+00
 -1       211 0.00000E+00 7.50000E-01 6.00000E+00
 -1       212 0.00000E+00 5.00000E-01 6.00000E+00
 -1       213 0.00000E+00 2.50000E-01 6.00000E+00
 -1       219 5.00000E-01 5.00000E-01 5.00000E-01
 -1       220 5.00000E-01 2.50000E-01 1.00000E+00
 -1       221 2.50000E-01 5.00000E-01 1.00000E+00
 -1       222 5.00000E-01 5.00000E-01 1.00000E+00
 -1       223 7.50000E-01 5.00000E-01 1.00000E+00
 -1       224 5.00000E-01 7.50000E-01 1.00000E+00
 -1       225 5.00000E-01 5.00000E-01 1.50000E+00
 -1       226 5.00000E-01 2.50000E-01 2.00000E+00
 -1       227 2.50000E-01 5.00000E-01 2.00000E+00
 -1       228 5.00000E-01 5.00000E-01 2.00000E+00
 -1       229 7.50000E-01 5.00000E-01 2.00000E+00
 -1       230 5.00000E-01 7.50000E-01 2.00000E+00
 -1       231 5.00000E-01 5.00000E-01 2.50000E+00
 -1       232 5.00000E-01 2.50000E-01 3.00000E+00
 -1       233 2.50000E-01 5.00000E-01 3.00000E+00
 -1       234 5.00000E-01 5.00000E-01 3.00000E+00
 -1       235 7.50000E-01 5.00000E-01 3.00000E+00
 -1       236 5.00000E-01 7.50000E-01 3.00000E+00
 -1       237 5.00000E-01 5.00000E-01 3.50000E+00
 -1       238 5.00000E-01 2.50000E-01 4.00000E+00
 -1       239 2.50000E-01 5.00000E-01 4.00000E+00
 -1       240 5.00000E-01 5.00000E-01 4.00000E+00
 -1       241 7.50000E-01 5.00000E-01 4.00000E+00
 -1       242 5.00000E-01 7.50000E-01 4.00000E+00
 -1       243 5.00000E-01 5.00000E-01 4.50000E+00
 -1       244 5.00000E-01 2.50000E-01 5.00000E+00
 -1       245 2.50000E-01 5.00000E-01 5.00000E+00
 -1       246 5.00000E-01 5.00000E-01 5.00000E+00
 -1       247 7.50000E-01 5.00000E-01 5.00000E+00
 -1       248 5.00000E-01 7.50000E-01 5.00000E+00
 -1       249 5.00000E-01 5.00000E-01 5.50000E+00
 -1       250 5.00000E-01 2.50000E-01 6.00000E+00
 -1       251 2.50000E-01 5.00000E-01 6.00000E+00
 -1       252 5.00000E-01 5.00000E-01 6.00000E+00
 -1       253 7.50000E-01 5.00000E-01 6.00000E+00
 -1       254 5.00000E-01 7.50000E-01 6.00000E+00
 -3
    3C                            24                                     1
 -1         1    4    0    1
 -2         1        10        95        19        61       105       222       192         9        93
 -2        94        20        62       103       219       190       104       220       221       193
 -1         2    4    0    1
 -2        10         2        13        95       105        34       134       222        11        12
 -2        96        93       103        33       132       219       106       133       223       220
 -1         3    4    0    1
 -2        19        95        16         4       192       222       163        79        94        97
 -2        17        18       190       219       161        78       221       224       164       191
 -1         4    4    0    1
 -2        95        13         3        16       222       134        64       163        96        14
 -2        15        97       219       132        63       161       223       135       162       224
 -1         5    4    0    1
 -2        61       105       222       192        59       109       228       196       104       220
 -2       221       193        60       107       225       194       108       226       227       197
 -1         6    4    0    1
 -2       105        34       134       222       109        36       138       228       106       133
 -2       223       220       107        35       136       225       110       137       229       226
 -1         7    4    0    1
 -2       192       222       163        79       196       228       167        81       221       224
 -2       164       191       194       225       165        80       227       230       168       195
 -1         8    4    0    1
 -2       222       134        64       163       228       138        66       167       223       135
 -2       162       224       225       136        65       165       229       139       166       230
 -1         9    4    0    1
 -2        59       109       228       196        57       113       234       200       108       226
 -2       227       197        58       111       231       198       112       232       233       201
 -1        10    4    0    1
 -2       109        36       138       228       113        38       142       234       110       137
 -2       229       226       111        37       140       231       114       141       235       232
 -1        11    4    0    1
 -2       196       228       167        81       200       234       171        83       227       230
 -2       168       195       198       231       169        82       233       236       172       199
 -1        12    4    0    1
 -2       228       138        66       167       234       142        68       171       229       139
 -2       166       230       231       140        67       169       235       143       170       236
 -1        13    4    0    1
 -2        57       113       234       200        55       117       240       204       112       232
 -2       233       201        56       115       237       202       116       238       239       205
 -1        14    4    0    1
 -2       113        38       142       234       117        40       146       240       114       141
 -2       235       232       115        39       144       237       118       145       241       238
 -1        15    4    0    1
 -2       200       234       171        83       204       240       175        85       233       236
 -2       172       199       202       237       173        84       239       242       176       203
 -1        16    4    0    1
 -2       234       142        68       171       240       146        70       175       235       143
 -2       170       236       237       144        69       173       241       147       174       242
 -1        17    4    0    1
 -2        55       117       240       204        53       121       246       208       116       238
 -2       239       205        54       119       243       206       120       244       245       209
 -1        18    4    0    1
 -2       117        40       146       240       121        42       150       246       118       145
 -2       241       238       119        41       148       243       122       149       247       244
 -1        19    4    0    1
 -2       204       240       175        85       208       246       179        87       239       242
 -2       176       203       206       243       177        86       245       248       180       207
 -1        20    4    0    1
 -2       240       146        70       175       246       150        72       179       241       147
 -2       174       242       243       148        71       177       247       151       178       248
 -1        21    4    0    1
 -2        53       121       246       208        51       125       252       212       120       244
 -2       245       209        52       123       249       210       124       250       251       213
 -1        22    4    0    1
 -2       121        42       150       246       125        44       154       252       122       149
 -2       247       244       123        43       152       249       126       153       253       250
 -1        23    4    0    1
 -2       208       246       179        87       212       252       183        89       245       248
 -2       180       207       210       249       181        88       251       254       184       211
 -1        24    4    0    1
 -2       246       150        72       179       252       154        74       183       247       151
 -2       178       248       249       152        73       181       253       155       182       254
 -3
    1PSTEP                         1           1           1          
  100CL  101 5.00000E-03         201                     1    1           1
 -4  DISP        4    1
 -5  D1          1    2    1    0
 -5  D2          1    2    2    0
 -5  D3          1    2    3    0
 -5  ALL         1    2    0    0    1ALL
 -1         1 0.00000E+00 0.00000E+00 0.00000E+00
 -1         2 0.00000E+00 0.00000E+00 0.00000E+00
 -1         3 0.00000E+00 0.00000E+00 0.00000E+00
 -1         4 0.00000E+00 0.00000E+00 0.00000E+00
 -1         9 0.00000E+00 0.00000E+00 0.00000E+00
 -1        10 0.00000E+00 0.00000E+00 0.00000E+00
 -1        11 0.00000E+00 0.00000E+00 0.00000E+00
 -1        12 0.00000E+00 0.00000E+00 0.00000E+00
 -1        13 0.00000E+00 0.00000E+00 0.00000E+00
 -1        14 0.00000E+00 0.00000E+00 0.00000E+00
 -1        15 0.00000E+00 0.00000E+00 0.00000E+00
 -1        16 0.00000E+00 0.00000E+00 0.00000E+00
 -1        17 0.00000E+00 0.00000E+00 0.00000E+00
 -1        18 0.00000E+00 0.00000E+00 0.00000E+00
 -1        19 0.00000E+00 0.00000E+00 0.00000E+00
 -1        20 0.00000E+00 0.00000E+00 0.00000E+00
 -1        33 6.38212E-05-1.55641E-04-2.04488E-04
 -1        34 3.13285E-05-4.81878E-04-3.74353E-04
 -1        35 2.57631E-05-9.70813E-04-4.83904E-04
 -1        36 8.14783E-06-1.52840E-03-5.40928E-04
 -1        37-5.16490E-06-2.11197E-03-5.47757E-04
 -1        38-2.11043E-05-2.69477E-03-5.19105E-04
 -1        39-4.25445E-05-3.19586E-03-3.84767E-04
 -1        40-4.31813E-05-3.54378E-03-2.09493E-04
 -1        41-4.43347E-05-3.58132E-03-6.38169E-05
 -1        42-6.12029E-05-3.74053E-03-1.48437E-04
 -1        43 6.20505E-05-3.47361E-03 8.54080E-05
 -1        44-6.05606E-05-3.46650E-03 4.48585E-04
 -1        51 6.05519E-05-3.46646E-03 4.48546E-04
 -1        52-6.20525E-05-3.47361E-03 8.53818E-05
 -1        53 6.12333E-05-3.74052E-03-1.48435E-04
 -1        54 4.43469E-05-3.58132E-03-6.38176E-05
 -1        55 4.32041E-05-3.54378E-03-2.09496E-04
 -1        56 4.25632E-05-3.19586E-03-3.84768E-04
 -1        57 2.11239E-05-2.69477E-03-5.19103E-04
 -1        58 5.17923E-06-2.11197E-03-5.47754E-04
 -1        59-8.13626E-06-1.52840E-03-5.40924E-04
 -1        60-2.57559E-05-9.70813E-04-4.83901E-04
 -1        61-3.13247E-05-4.81878E-04-3.74350E-04
 -1        62-6.38201E-05-1.55641E-04-2.04486E-04
 -1        63-6.26516E-05-1.53915E-04 2.01071E-04
 -1        64-3.11686E-05-4.81322E-04 3.67019E-04
 -1        65-2.34148E-05-9.70354E-04 4.73647E-04
 -1        66-7.92095E-06-1.53490E-03 5.27288E-04
 -1        67 5.00211E-06-2.10222E-03 5.30921E-04
 -1        68 1.45733E-05-2.69529E-03 4.93995E-04
 -1        69 5.87051E-05-3.20654E-03 3.58280E-04
 -1        70 6.60860E-05-3.63518E-03 1.84656E-04
 -1        71-5.59909E-06-3.45903E-03 3.34058E-05
 -1        72-1.05004E-04-3.47742E-03 7.89650E-05
 -1        73 2.03362E-04-3.88948E-03-1.68233E-04
 -1        74 3.19773E-04-4.41431E-03-4.94448E-04
 -1        78 6.26528E-05-1.53915E-04 2.01073E-04
 -1        79 3.11726E-05-4.81322E-04 3.67021E-04
 -1        80 2.34221E-05-9.70354E-04 4.73650E-04
 -1        81 7.93266E-06-1.53490E-03 5.27292E-04
 -1        82-4.98754E-06-2.10222E-03 5.30924E-04
 -1        83-1.45535E-05-2.69529E-03 4.93998E-04
 -1        84-5.86861E-05-3.20654E-03 3.58279E-04
 -1        85-6.60630E-05-3.63518E-03 1.84653E-04
 -1        86 5.61193E-06-3.45903E-03 3.34049E-05
 -1        87 1.05035E-04-3.47743E-03 7.89653E-05
 -1        88-2.03363E-04-3.88947E-03-1.68259E-04
 -1        89-3.19780E-04-4.41435E-03-4.94489E-04
 -1        93 0.00000E+00 0.00000E+00 0.00000E+00
 -1        94 0.00000E+00 0.00000E+00 0.00000E+00
 -1        95 0.00000E+00 0.00000E+00 0.00000E+00
 -1        96 0.00000E+00 0.00000E+00 0.00000E+00
 -1        97 0.00000E+00 0.00000E+00 0.00000E+00
 -1       103 4.89341E-10-1.81919E-04-2.00695E-04
 -1       104-1.56191E-05-5.01309E-04-3.80264E-04
 -1       105 1.78680E-09-5.03837E-04-3.82909E-04
 -1       106 1.56228E-05-5.01309E-04-3.80266E-04
 -1       107 3.65007E-09-9.80900E-04-4.86620E-04
 -1       108-3.29563E-06-1.53060E-03-5.44638E-04
 -1       109 5.34402E-09-1.54124E-03-5.43562E-04
 -1       110 3.30672E-06-1.53060E-03-5.44640E-04
 -1       111 7.62386E-09-2.10313E-03-5.51554E-04
 -1       112 7.53340E-06-2.71888E-03-5.21247E-04
 -1       113 8.38097E-09-2.71215E-03-5.22863E-04
 -1       114-7.51504E-06-2.71888E-03-5.21248E-04
 -1       115 1.03676E-08-3.15755E-03-3.93243E-04
 -1       116 3.30148E-05-3.52022E-03-2.03959E-04
 -1       117 7.29543E-09-3.64260E-03-1.83031E-04
 -1       118-3.29965E-05-3.52022E-03-2.03959E-04
 -1       119 1.03849E-08-3.55482E-03-6.57964E-05
 -1       120-6.82881E-06-3.91153E-03-1.12738E-04
 -1       121 2.19249E-09-3.76577E-03-1.17745E-04
 -1       122 6.84751E-06-3.91153E-03-1.12733E-04
 -1       123 5.54654E-09-3.48343E-03-2.52296E-05
 -1       124 1.48475E-04-2.96626E-03 4.29411E-04
 -1       125-3.45227E-08-3.58883E-03 4.49090E-04
 -1       126-1.48516E-04-2.96628E-03 4.29405E-04
 -1       132 7.14812E-07-1.18669E-04-1.58949E-06
 -1       133 1.61322E-05-4.69621E-04-1.77982E-04
 -1       134 8.90214E-07-4.74336E-04-2.85542E-06
 -1       135-1.53945E-05-4.69731E-04 1.71204E-04
 -1       136-1.64267E-07-9.53276E-04-5.54387E-06
 -1       137 4.80999E-06-1.52649E-03-2.68561E-04
 -1       138 5.19387E-07-1.51870E-03-7.30811E-06
 -1       139-3.66257E-06-1.52819E-03 2.55214E-04
 -1       140 1.70291E-06-2.12609E-03-9.12847E-06
 -1       141-1.04493E-05-2.68028E-03-2.44266E-04
 -1       142 5.54977E-06-2.68681E-03-5.04278E-06
 -1       143 1.13139E-05-2.68647E-03 2.24244E-04
 -1       144-8.89890E-06-3.21989E-03-1.26020E-05
 -1       145-2.02864E-05-3.56269E-03-1.31923E-04
 -1       146-1.29610E-05-3.46576E-03-2.46805E-05
 -1       147 1.81565E-05-3.58688E-03 1.00811E-04
 -1       148 2.70887E-05-3.68173E-03-2.36709E-05
 -1       149-3.27102E-05-3.42227E-03-4.68572E-05
 -1       150 8.54282E-05-3.44940E-03-1.91657E-06
 -1       151 2.84475E-05-3.35453E-03 6.89568E-08
 -1       152-1.27178E-04-3.72149E-03 1.20277E-05
 -1       153 7.02909E-05-3.63590E-03 1.90970E-04
 -1       154-1.20198E-04-2.50329E-03-2.03749E-05
 -1       155-6.55598E-05-3.88906E-03-2.38046E-04
 -1       161 5.06494E-10-1.80720E-04 1.96988E-04
 -1       162-1.53685E-05-5.00672E-04 3.73569E-04
 -1       163 1.83065E-09-5.01388E-04 3.75742E-04
 -1       164 1.53723E-05-5.00672E-04 3.73570E-04
 -1       165 3.71017E-09-9.80968E-04 4.76633E-04
 -1       166-3.94671E-06-1.52796E-03 5.30627E-04
 -1       167 5.44108E-09-1.53720E-03 5.32863E-04
 -1       168 3.95797E-06-1.52796E-03 5.30629E-04
 -1       169 7.72197E-09-2.10400E-03 5.30921E-04
 -1       170 7.53659E-06-2.71881E-03 5.01355E-04
 -1       171 8.53877E-09-2.68079E-03 4.96938E-04
 -1       172-7.51796E-06-2.71881E-03 5.01356E-04
 -1       173 1.05118E-08-3.17822E-03 3.69040E-04
 -1       174 3.14363E-05-3.46181E-03 1.71121E-04
 -1       175 7.53200E-09-3.56190E-03 1.72790E-04
 -1       176-3.14177E-05-3.46181E-03 1.71121E-04
 -1       177 1.05297E-08-3.51178E-03 2.08993E-05
 -1       178-4.46483E-05-4.00875E-03 7.16571E-05
 -1       179 2.63647E-09-3.57930E-03 4.82121E-05
 -1       180 4.46678E-05-4.00876E-03 7.16512E-05
 -1       181 6.09712E-09-3.68395E-03-6.07606E-05
 -1       182 1.14086E-04-2.56184E-03-4.71155E-04
 -1       183-3.19227E-08-4.35548E-03-4.76116E-04
 -1       184-1.14124E-04-2.56185E-03-4.71152E-04
 -1       190-7.13511E-07-1.18669E-04-1.58806E-06
 -1       191 1.53988E-05-4.69731E-04 1.71207E-04
 -1       192-8.85685E-07-4.74336E-04-2.85242E-06
 -1       193-1.61280E-05-4.69621E-04-1.77979E-04
 -1       194 1.71215E-07-9.53276E-04-5.54077E-06
 -1       195 3.67498E-06-1.52819E-03 2.55218E-04
 -1       196-5.06259E-07-1.51870E-03-7.30443E-06
 -1       197-4.79765E-06-1.52649E-03-2.68557E-04
 -1       198-1.68978E-06-2.12609E-03-9.12542E-06
 -1       199-1.12926E-05-2.68647E-03 2.24247E-04
 -1       200-5.52677E-06-2.68681E-03-5.03850E-06
 -1       201 1.04706E-05-2.68028E-03-2.44263E-04
 -1       202 8.91561E-06-3.21989E-03-1.26041E-05
 -1       203-1.81289E-05-3.58688E-03 1.00809E-04
 -1       204 1.29931E-05-3.46576E-03-2.46831E-05
 -1       205 2.03138E-05-3.56269E-03-1.31925E-04
 -1       206-2.70854E-05-3.68173E-03-2.36703E-05
 -1       207-2.84064E-05-3.35454E-03 7.53871E-08
 -1       208-8.53759E-05-3.44940E-03-1.89519E-06
 -1       209 3.27513E-05-3.42226E-03-4.68507E-05
 -1       210 1.27171E-04-3.72149E-03 1.19833E-05
 -1       211 6.55939E-05-3.88907E-03-2.38081E-04
 -1       212 1.20268E-04-2.50330E-03-2.04330E-05
 -1       213-7.02583E-05-3.63588E-03 1.90940E-04
 -1       219 6.39890E-10-1.44448E-04-1.41853E-06
 -1       220 1.73140E-09-4.89446E-04-1.83630E-04
 -1       221-4.12012E-07-4.90974E-04-3.61298E-06
 -1       222 1.62316E-09-4.92377E-04-3.77776E-06
 -1       223 4.15878E-07-4.90974E-04-3.61433E-06
 -1       224 1.75326E-09-4.88074E-04 1.76712E-04
 -1       225 3.89211E-09-9.65441E-04-5.09488E-06
 -1       226 5.00096E-09-1.53403E-03-2.72862E-04
 -1       227-3.58864E-07-1.51992E-03-6.82132E-06
 -1       228 4.67801E-09-1.52178E-03-8.40840E-06
 -1       229 3.69993E-07-1.51992E-03-6.82333E-06
 -1       230 5.04959E-09-1.53239E-03 2.57751E-04
 -1       231 8.15868E-09-2.12469E-03-7.42071E-06
 -1       232 7.48553E-09-2.68824E-03-2.49291E-04
 -1       233-2.21466E-06-2.68403E-03-1.26398E-05
 -1       234 6.61100E-09-2.68116E-03-1.39204E-05
 -1       235 2.23321E-06-2.68403E-03-1.26407E-05
 -1       236 7.56389E-09-2.67106E-03 2.27175E-04
 -1       237 1.14038E-08-3.19226E-03-9.25786E-06
 -1       238 5.03536E-09-3.61153E-03-1.24023E-04
 -1       239 5.77448E-06-3.45355E-03-1.43059E-05
 -1       240 2.98737E-09-3.47743E-03-2.00111E-05
 -1       241-5.75652E-06-3.45355E-03-1.43090E-05
 -1       242 5.15394E-09-3.57416E-03 8.85070E-05
 -1       243 1.38801E-08-3.65605E-03-2.11639E-05
 -1       244-2.49106E-09-3.52083E-03-2.04227E-05
 -1       245-3.38591E-05-3.61180E-03-2.61276E-05
 -1       246-7.50210E-09-3.65206E-03-1.96820E-05
 -1       247 3.38810E-05-3.61180E-03-2.61186E-05
 -1       248-2.24316E-09-3.43682E-03-9.96659E-06
 -1       249 1.12440E-08-3.52275E-03-1.30188E-05
 -1       250-4.53925E-08-4.08232E-03 1.75087E-04
 -1       251 3.03443E-05-2.57228E-03-1.00457E-05
 -1       252-5.43181E-08-3.12283E-03-1.52447E-05
 -1       253-3.03696E-05-2.57228E-03-1.00926E-05
 -1       254-4.38922E-08-4.41321E-03-2.53804E-04
 -3
    1PSTEP                         2           2           1          
  100CL  102 1.00000E-02         201                     1    2           1
 -4  DISP        4    1
 -5  D1          1    2    1    0
 -5  D2          1    2    2    0
 -5  D3          1    2    3    0
 -5  ALL         1    2    0    0    1ALL
 -1         1 0.00000E+00 0.00000E+00 0.00000E+00
 -1         2 0.00000E+00 0.00000E+00 0.00000E+00
 -1         3 0.00000E+00 0.00000E+00 0.00000E+00
 -1         4 0.00000E+00 0.00000E+00 0.00000E+00
 -1         9 0.00000E+00 0.00000E+00 0.00000E+00
 -1        10 0.00000E+00 0.00000E+00 0.00000E+00
 -1        11 0.00000E+00 0.00000E+00 0.00000E+00
 -1        12 0.00000E+00 0.00000E+00 0.00000E+00
 -1        13 0.00000E+00 0.00000E+00 0.00000E+00
 -1        14 0.00000E+00 0.00000E+00 0.00000E+00
 -1        15 0.00000E+00 0.00000E+00 0.00000E+00
 -1        16 0.00000E+00 0.00000E+00 0.00000E+00
 -1        17 0.00000E+00 0.00000E+00 0.00000E+00
 -1        18 0.00000E+00 0.00000E+00 0.00000E+00
 -1        19 0.00000E+00 0.00000E+00 0.00000E+00
 -1        20 0.00000E+00 0.00000E+00 0.00000E+00
 -1        33-3.19934E-05 7.91862E-05 1.03017E-04
 -1        34-1.54733E-05 2.44851E-04 1.87756E-04
 -1        35-1.27423E-05 4.92625E-04 2.42753E-04
 -1        36-4.49982E-06 7.74422E-04 2.70091E-04
 -1        37 4.40587E-06 1.07206E-03 2.71884E-04
 -1        38 1.36546E-05 1.36792E-03 2.50339E-04
 -1        39 2.05788E-05 1.60888E-03 1.85256E-04
 -1        40 1.36491E-05 1.78325E-03 9.24740E-05
 -1        41 3.61461E-05 1.81873E-03 2.07898E-05
 -1        42 4.69171E-05 1.87432E-03 1.11185E-05
 -1        43-4.32505E-05 1.69325E-03-7.83700E-05
 -1        44-1.60553E-04 1.59929E-03-2.33988E-04
 -1        51 1.60722E-04 1.59916E-03-2.34007E-04
 -1        52 4.34401E-05 1.69318E-03-7.83823E-05
 -1        53-4.67685E-05 1.87429E-03 1.10723E-05
 -1        54-3.59613E-05 1.81870E-03 2.07841E-05
 -1        55-1.34808E-05 1.78322E-03 9.24896E-05
 -1        56-2.04213E-05 1.60885E-03 1.85273E-04
 -1        57-1.35276E-05 1.36790E-03 2.50357E-04
 -1        58-4.30056E-06 1.07204E-03 2.71906E-04
 -1        59 4.57527E-06 7.74410E-04 2.70114E-04
 -1        60 1.27929E-05 4.92616E-04 2.42773E-04
 -1        61 1.54991E-05 2.44846E-04 1.87772E-04
 -1        62 3.20029E-05 7.91859E-05 1.03025E-04
 -1        63 3.20021E-05 7.91722E-05-1.03007E-04
 -1        64 1.55020E-05 2.44840E-04-1.87734E-04
 -1        65 1.27367E-05 4.92657E-04-2.42719E-04
 -1        66 4.50510E-06 7.74503E-04-2.70039E-04
 -1        67-4.16830E-06 1.07187E-03-2.71817E-04
 -1        68-1.32442E-05 1.36766E-03-2.50236E-04
 -1        69-2.11480E-05 1.60954E-03-1.85139E-04
 -1        70-1.47514E-05 1.78474E-03-9.23321E-05
 -1        71-3.31954E-05 1.81567E-03-2.06036E-05
 -1        72-4.03953E-05 1.86764E-03-1.08052E-05
 -1        73 3.10934E-05 1.70602E-03 7.86852E-05
 -1        74 1.39529E-04 1.62270E-03 2.34243E-04
 -1        78-3.19984E-05 7.91665E-05-1.02999E-04