    1C
    1UUSER                                                              
    1UDATE              15.july.2018                                    
    1UTIME              18:19:27                                        
    1UHOST                                                              
    1UPGM               CalculiX                                        
    1UVERSION           Version 2.13                             
    1UCOMPILETIME       jue jun 14 00:40:39 CEST 2018                    
    1UDIR                                                               
    1UDBN                                                               
    1UMAT    1EL                                                        
    2C                            81                                     1
 -1         5 0.00000E+00 0.00000E+00 8.00000E+00
 -1         6 1.00000E+00 0.00000E+00 8.00000E+00
 -1         7 1.00000E+00 1.00000E+00 8.00000E+00
 -1         8 0.00000E+00 1.00000E+00 8.00000E+00
 -1        21 2.50000E-01 0.00000E+00 8.00000E+00
 -1        22 5.00000E-01 0.00000E+00 8.00000E+00
 -1        23 7.50000E-01 0.00000E+00 8.00000E+00
 -1        24 1.00000E+00 2.50000E-01 8.00000E+00
 -1        25 1.00000E+00 5.00000E-01 8.00000E+00
 -1        26 1.00000E+00 7.50000E-01 8.00000E+00
 -1        27 7.50000E-01 1.00000E+00 8.00000E+00
 -1        28 5.00000E-01 1.00000E+00 8.00000E+00
 -1        29 2.50000E-01 1.00000E+00 8.00000E+00
 -1        30 0.00000E+00 7.50000E-01 8.00000E+00
 -1        31 0.00000E+00 5.00000E-01 8.00000E+00
 -1        32 0.00000E+00 2.50000E-01 8.00000E+00
 -1        44 1.00000E+00 0.00000E+00 6.00000E+00
 -1        45 1.00000E+00 0.00000E+00 6.50000E+00
 -1        46 1.00000E+00 0.00000E+00 7.00000E+00
 -1        47 1.00000E+00 0.00000E+00 7.50000E+00
 -1        48 0.00000E+00 0.00000E+00 7.50000E+00
 -1        49 0.00000E+00 0.00000E+00 7.00000E+00
 -1        50 0.00000E+00 0.00000E+00 6.50000E+00
 -1        51 0.00000E+00 0.00000E+00 6.00000E+00
 -1        74 1.00000E+00 1.00000E+00 6.00000E+00
 -1        75 1.00000E+00 1.00000E+00 6.50000E+00
 -1        76 1.00000E+00 1.00000E+00 7.00000E+00
 -1        77 1.00000E+00 1.00000E+00 7.50000E+00
 -1        89 0.00000E+00 1.00000E+00 6.00000E+00
 -1        90 0.00000E+00 1.00000E+00 6.50000E+00
 -1        91 0.00000E+00 1.00000E+00 7.00000E+00
 -1        92 0.00000E+00 1.00000E+00 7.50000E+00
 -1        98 5.00000E-01 2.50000E-01 8.00000E+00
 -1        99 2.50000E-01 5.00000E-01 8.00000E+00
 -1       100 5.00000E-01 5.00000E-01 8.00000E+00
 -1       101 7.50000E-01 5.00000E-01 8.00000E+00
 -1       102 5.00000E-01 7.50000E-01 8.00000E+00
 -1       124 2.50000E-01 0.00000E+00 6.00000E+00
 -1       125 5.00000E-01 0.00000E+00 6.00000E+00
 -1       126 7.50000E-01 0.00000E+00 6.00000E+00
 -1       127 5.00000E-01 0.00000E+00 6.50000E+00
 -1       128 2.50000E-01 0.00000E+00 7.00000E+00
 -1       129 5.00000E-01 0.00000E+00 7.00000E+00
 -1       130 7.50000E-01 0.00000E+00 7.00000E+00
 -1       131 5.00000E-01 0.00000E+00 7.50000E+00
 -1       153 1.00000E+00 2.50000E-01 6.00000E+00
 -1       154 1.00000E+00 5.00000E-01 6.00000E+00
 -1       155 1.00000E+00 7.50000E-01 6.00000E+00
 -1       156 1.00000E+00 5.00000E-01 6.50000E+00
 -1       157 1.00000E+00 2.50000E-01 7.00000E+00
 -1       158 1.00000E+00 5.00000E-01 7.00000E+00
 -1       159 1.00000E+00 7.50000E-01 7.00000E+00
 -1       160 1.00000E+00 5.00000E-01 7.50000E+00
 -1       182 7.50000E-01 1.00000E+00 6.00000E+00
 -1       183 5.00000E-01 1.00000E+00 6.00000E+00
 -1       184 2.50000E-01 1.00000E+00 6.00000E+00
 -1       185 5.00000E-01 1.00000E+00 6.50000E+00
 -1       186 7.50000E-01 1.00000E+00 7.00000E+00
 -1       187 5.00000E-01 1.00000E+00 7.00000E+00
 -1       188 2.50000E-01 1.00000E+00 7.00000E+00
 -1       189 5.00000E-01 1.00000E+00 7.50000E+00
 -1       211 0.00000E+00 7.50000E-01 6.00000E+00
 -1       212 0.00000E+00 5.00000E-01 6.00000E+00
 -1       213 0.00000E+00 2.50000E-01 6.00000E+00
 -1       214 0.00000E+00 5.00000E-01 6.50000E+00
 -1       215 0.00000E+00 7.50000E-01 7.00000E+00
 -1       216 0.00000E+00 5.00000E-01 7.00000E+00
 -1       217 0.00000E+00 2.50000E-01 7.00000E+00
 -1       218 0.00000E+00 5.00000E-01 7.50000E+00
 -1       250 5.00000E-01 2.50000E-01 6.00000E+00
 -1       251 2.50000E-01 5.00000E-01 6.00000E+00
 -1       252 5.00000E-01 5.00000E-01 6.00000E+00
 -1       253 7.50000E-01 5.00000E-01 6.00000E+00
 -1       254 5.00000E-01 7.50000E-01 6.00000E+00
 -1       255 5.00000E-01 5.00000E-01 6.50000E+00
 -1       256 5.00000E-01 2.50000E-01 7.00000E+00
 -1       257 2.50000E-01 5.00000E-01 7.00000E+00
 -1       258 5.00000E-01 5.00000E-01 7.00000E+00
 -1       259 7.50000E-01 5.00000E-01 7.00000E+00
 -1       260 5.00000E-01 7.50000E-01 7.00000E+00
 -1       261 5.00000E-01 5.00000E-01 7.50000E+00
 -3
    3C                             8                                     1
 -1        25    4    0    1
 -2        51       125       252       212        49       129       258       216       124       250
 -2       251       213        50       127       255       214       128       256       257       217
 -1        26    4    0    1
 -2       125        44       154       252       129        46       158       258       126       153
 -2       253       250       127        45       156       255       130       157       259       256
 -1        27    4    0    1
 -2       212       252       183        89       216       258       187        91       251       254
 -2       184       211       214       255       185        90       257       260       188       215
 -1        28    4    0    1
 -2       252       154        74       183       258       158        76       187       253       155
 -2       182       254       255       156        75       185       259       159       186       260
 -1        29    4    0    1
 -2        49       129       258       216         5        22       100        31       128       256
 -2       257       217        48       131       261       218        21        98        99        32
 -1        30    4    0    1
 -2       129        46       158       258        22         6        25       100       130       157
 -2       259       256       131        47       160       261        23        24       101        98
 -1        31    4    0    1
 -2       216       258       187        91        31       100        28         8       257       260
 -2       188       215       218       261       189        92        99       102        29        30
 -1        32    4    0    1
 -2       258       158        76       187       100        25         7        28       259       159
 -2       186       260       261       160        77       189       101        26        27       102
 -3
    1PSTEP                         1           1           1          
  100CL  101 5.00000E-03          81                     1    1           1
 -4  DISP        4    1
 -5  D1          1    2    1    0
 -5  D2          1    2    2    0
 -5  D3          1    2    3    0
 -5  ALL         1    2    0    0    1ALL
 -1         5 0.00000E+00 0.00000E+00 0.00000E+00
 -1         6 0.00000E+00 0.00000E+00 0.00000E+00
 -1         7 0.00000E+00 0.00000E+00 0.00000E+00
 -1         8 0.00000E+00 0.00000E+00 0.00000E+00
 -1        21 0.00000E+00 0.00000E+00 0.00000E+00
 -1        22 0.00000E+00 0.00000E+00 0.00000E+00
 -1        23 0.00000E+00 0.00000E+00 0.00000E+00
 -1        24 0.00000E+00 0.00000E+00 0.00000E+00
 -1        25 0.00000E+00 0.00000E+00 0.00000E+00
 -1        26 0.00000E+00 0.00000E+00 0.00000E+00
 -1        27 0.00000E+00 0.00000E+00 0.00000E+00
 -1        28 0.00000E+00 0.00000E+00 0.00000E+00
 -1        29 0.00000E+00 0.00000E+00 0.00000E+00
 -1        30 0.00000E+00 0.00000E+00 0.00000E+00
 -1        31 0.00000E+00 0.00000E+00 0.00000E+00
 -1        32 0.00000E+00 0.00000E+00 0.00000E+00
 -1        44-6.01941E-05-3.46536E-03 4.48569E-04
 -1        45 5.68292E-05-2.56230E-03 7.85515E-04
 -1        46-4.77893E-05-1.79571E-03 9.49239E-04
 -1        47 1.31030E-04-6.75002E-04 5.43189E-04
 -1        48-1.31031E-04-6.75003E-04 5.43190E-04
 -1        49 4.77867E-05-1.79571E-03 9.49242E-04
 -1        50-5.68365E-05-2.56230E-03 7.85519E-04
 -1        51 6.01853E-05-3.46536E-03 4.48574E-04
 -1        74 3.18754E-04-4.41228E-03-4.94467E-04
 -1        75 1.91105E-04-2.97240E-03-7.84567E-04
 -1        76-1.10377E-04-1.59756E-03-9.50048E-04
 -1        77-2.07880E-04-5.26665E-04-5.58239E-04
 -1        89-3.18762E-04-4.41227E-03-4.94462E-04
 -1        90-1.91112E-04-2.97240E-03-7.84563E-04
 -1        91 1.10375E-04-1.59756E-03-9.50045E-04
 -1        92 2.07879E-04-5.26665E-04-5.58238E-04
 -1        98 0.00000E+00 0.00000E+00 0.00000E+00
 -1        99 0.00000E+00 0.00000E+00 0.00000E+00
 -1       100 0.00000E+00 0.00000E+00 0.00000E+00
 -1       101 0.00000E+00 0.00000E+00 0.00000E+00
 -1       102 0.00000E+00 0.00000E+00 0.00000E+00
 -1       124 1.49837E-04-2.96629E-03 4.29624E-04
 -1       125-5.55070E-09-3.58977E-03 4.48911E-04
 -1       126-1.49847E-04-2.96629E-03 4.29620E-04
 -1       127-3.23543E-09-2.56262E-03 9.03791E-04
 -1       128-9.17790E-06-1.95288E-03 9.48224E-04
 -1       129-1.43931E-09-1.81459E-03 9.41583E-04
 -1       130 9.17520E-06-1.95288E-03 9.48223E-04
 -1       131-2.33002E-10-7.36438E-04 5.56389E-04
 -1       153 7.00079E-05-3.63598E-03 1.91131E-04
 -1       154-1.20378E-04-2.50279E-03-2.07265E-05
 -1       155-6.51836E-05-3.88892E-03-2.38060E-04
 -1       156-1.20320E-04-2.78953E-03-6.45467E-05
 -1       157-2.06142E-05-1.50893E-03 3.92369E-04
 -1       158 8.84924E-05-1.56694E-03-2.94410E-05
 -1       159 4.67638E-05-1.47553E-03-4.11081E-04
 -1       160 3.98342E-05-6.56524E-04 4.87968E-06
 -1       182 1.14953E-04-2.56263E-03-4.71199E-04
 -1       183-6.15055E-09-4.35573E-03-4.76235E-04
 -1       184-1.14963E-04-2.56263E-03-4.71195E-04
 -1       185-3.02035E-09-2.83331E-03-8.74062E-04
 -1       186-4.41602E-05-2.16240E-03-9.82672E-04
 -1       187-1.63247E-09-1.83178E-03-9.63731E-04
 -1       188 4.41575E-05-2.16240E-03-9.82671E-04
 -1       189-2.08530E-10-7.19924E-04-5.64496E-04
 -1       211 6.51692E-05-3.88892E-03-2.38054E-04
 -1       212 1.20360E-04-2.50279E-03-2.07161E-05
 -1       213-7.00221E-05-3.63598E-03 1.91138E-04
 -1       214 1.20316E-04-2.78953E-03-6.45414E-05
 -1       215-4.67671E-05-1.47553E-03-4.11078E-04
 -1       216-8.84975E-05-1.56694E-03-2.94384E-05
 -1       217 2.06106E-05-1.50893E-03 3.92372E-04
 -1       218-3.98352E-05-6.56524E-04 4.88062E-06
 -1       250-5.49270E-09-4.08215E-03 1.74698E-04
 -1       251 3.03438E-05-2.57221E-03-1.04426E-05
 -1       252-5.54724E-09-3.12388E-03-1.60053E-05
 -1       253-3.03581E-05-2.57221E-03-1.04445E-05
 -1       254-5.94090E-09-4.41344E-03-2.53839E-04
 -1       255-4.02485E-09-2.59925E-03-3.20576E-05
 -1       256-1.27280E-09-1.60750E-03 3.95661E-04
 -1       257-4.11551E-05-1.74936E-03-1.19998E-05
 -1       258-9.90303E-10-1.79045E-03-1.45101E-05
 -1       259 4.11518E-05-1.74936E-03-1.20018E-05
 -1       260-1.34066E-09-1.62257E-03-4.18338E-04
 -1       261-4.40432E-10-7.17082E-04-1.95585E-06
 -3
    1PSTEP                         2           2           1          
  100CL  102 1.00000E-02          81                     1    2           1
 -4  DISP        4    1
 -5  D1          1    2    1    0
 -5  D2          1    2    2    0
 -5  D3          1    2    3    0
 -5  ALL         1    2    0    0    1ALL
 -1         5 0.00000E+00 0.00000E+00 0.00000E+00
 -1         6 0.00000E+00 0.00000E+00 0.00000E+00
 -1         7 0.00000E+00 0.00000E+00 0.00000E+00
 -1         8 0.00000E+00 0.00000E+00 0.00000E+00
 -1        21 0.00000E+00 0.00000E+00 0.00000E+00
 -1        22 0.00000E+00 0.00000E+00 0.00000E+00
 -1        23 0.00000E+00 0.00000E+00 0.00000E+00
 -1        24 0.00000E+00 0.00000E+00 0.00000E+00
 -1        25 0.00000E+00 0.00000E+00 0.00000E+00
 -1        26 0.00000E+00 0.00000E+00 0.00000E+00
 -1        27 0.00000E+00 0.00000E+00 0.00000E+00
 -1        28 0.00000E+00 0.00000E+00 0.00000E+00
 -1        29 0.00000E+00 0.00000E+00 0.00000E+00
 -1        30 0.00000E+00 0.00000E+00 0.00000E+00
 -1        31 0.00000E+00 0.00000E+00 0.00000E+00
 -1        32 0.00000E+00 0.00000E+00 0.00000E+00
 -1        44-1.64840E-04 1.59671E-03-2.33977E-04
 -1        45-4.21457E-05 1.24297E-03-3.77309E-04
 -1        46 4.40794E-05 9.16046E-04-4.32108E-04
 -1        47-5.20402E-05 3.71689E-04-2.84058E-04
 -1        48 5.20437E-05 3.71686E-04-2.84054E-04
 -1        49-4.40559E-05 9.16035E-04-4.32112E-04
 -1        50 4.21352E-05 1.24299E-03-3.77306E-04
 -1        51 1.64826E-04 1.59670E-03-2.33933E-04
 -1        74 1.41979E-04 1.62210E-03 2.34053E-04
 -1        75 2.91806E-05 1.25671E-03 3.77141E-04
 -1        76-3.94537E-05 9.11235E-04 4.32196E-04
 -1        77 5.56775E-05 3.67760E-04 2.84175E-04
 -1        89-1.41998E-04 1.62203E-03 2.34010E-04
 -1        90-2.91908E-05 1.25669E-03 3.77103E-04
 -1        91 3.94649E-05 9.11239E-04 4.32208E-04
 -1        92-5.56739E-05 3.67758E-04 2.84181E-04
 -1        98 0.00000E+00 0.00000E+00 0.00000E+00
 -1        99 0.00000E+00 0.00000E+00 0.00000E+00
 -1       100 0.00000E+00 0.00000E+00 0.00000E+00
 -1       101 0.00000E+00 0.00000E+00 0.00000E+00
 -1       102 0.00000E+00 0.00000E+00 0.00000E+00
 -1       124 1.88737E-05 1.48351E-03-2.20362E-04
 -1       125-3.43813E-08 1.76511E-03-2.31381E-04
 -1       126-1.89030E-05 1.48354E-03-2.20394E-04
 -1       127 1.39686E-08 1.30210E-03-4.18745E-04
 -1       128-6.35119E-06 9.58296E-04-4.63491E-04
 -1       129-6.62095E-09 8.90475E-04-4.72925E-04
 -1       130 6.35360E-06 9.58296E-04-4.63487E-04
 -1       131 3.97971E-09 3.75215E-04-2.75996E-04
 -1       153 1.29850E-04 1.90360E-03-1.03944E-04
 -1       154-3.28158E-06 1.69562E-03 1.57529E-08
 -1       155-1.22620E-04 1.93102E-03 1.04113E-04
 -1       156 7.39163E-07 1.40665E-03 1.57574E-06
 -1       157-2.60942E-05 7.95962E-04-1.86095E-04
 -1       158 6.97776E-07 8.10100E-04 5.75986E-07
 -1       159 2.44175E-05 7.90336E-04 1.86034E-04
 -1       160-3.04390E-07 3.08091E-04-3.11996E-08
 -1       182-7.71983E-06 1.47454E-03 2.20772E-04
 -1       183-4.18961E-09 1.77595E-03 2.31360E-04
 -1       184 7.71367E-06 1.47452E-03 2.20769E-04
 -1       185 5.14706E-10 1.30270E-03 4.16093E-04
 -1       186-6.72709E-07 9.60803E-04 4.63764E-04
 -1       187 6.89304E-10 8.88639E-04 4.72149E-04
 -1       188 6.76416E-07 9.60803E-04 4.63764E-04
 -1       189 1.76955E-09 3.75461E-04 2.76077E-04
 -1       211 1.22617E-04 1.93095E-03 1.04133E-04
 -1       212 3.25770E-06 1.69558E-03-1.35058E-08
 -1       213-1.29857E-04 1.90359E-03-1.03930E-04
 -1       214-7.11562E-07 1.40664E-03 1.57564E-06
 -1       215-2.44205E-05 7.90339E-04 1.86026E-04
 -1       216-7.07216E-07 8.10095E-04 5.75263E-07
 -1       217 2.60993E-05 7.95951E-04-1.86099E-04
 -1       218 3.08413E-07 3.08090E-04-3.79590E-08
 -1       250-2.93418E-09 1.91925E-03-1.02878E-04
 -1       251-9.59782E-06 1.20948E-03-2.71540E-07
 -1       252 4.22403E-08 1.54134E-03 1.34603E-07
 -1       253 9.62473E-06 1.20951E-03-2.20494E-07
 -1       254 1.90772E-08 1.90172E-03 1.03560E-04
 -1       255-2.55935E-09 1.37525E-03 1.79468E-07
 -1       256 4.42716E-09 7.81209E-04-2.07283E-04
 -1       257 2.15295E-06 9.14168E-04 4.79832E-08
 -1       258 1.25130E-08 8.12314E-04 6.71393E-08
 -1       259-2.14355E-06 9.14170E-04 3.97195E-08
 -1       260 6.62816E-09 7.85331E-04 2.07477E-04
 -1       261-1.70340E-09 3.48563E-04-1.29518E-08
 -3
    1PSTEP                         3           3           1          
  100CL  103 1.50000E-02          81                     1    3           1
 -4  DISP        4    1
 -5  D1          1    2    1    0
 -5  D2          1    2    2    0
 -5  D3          1    2    3    0
 -5  ALL         1    2    0    0    1ALL
 -1         5 0.00000E+00 0.00000E+00 0.00000E+00
 -1         6 0.00000E+00 0.00000E+00 0.00000E+00
 -1         7 0.00000E+00 0.00000E+00 0.00000E+00
 -1         8 0.00000E+00 0.00000E+00 0.00000E+00
 -1        21 0.00000E+00 0.00000E+00 0.00000E+00
 -1        22 0.00000E+00 0.00000E+00 0.00000E+00
 -1        23 0.00000E+00 0.00000E+00 0.00000E+00
 -1        24 0.00000E+00 0.00000E+00 0.00000E+00
 -1        25 0.00000E+00 0.00000E+00 0.00000E+00
 -1        26 0.00000E+00 0.00000E+00 0.00000E+00
 -1        27 0.00000E+00 0.00000E+00 0.00000E+00
 -1        28 0.00000E+00 0.00000E+00 0.00000E+00
 -1        29 0.00000E+00 0.00000E+00 0.00000E+00
 -1        30 0.00000E+00 0.00000E+00 0.00000E+00
 -1        31 0.00000E+00 0.00000E+00 0.00000E+00
 -1        32 0.00000E+00 0.00000E+00 0.00000E+00
 -1        44 1.21110E-04-1.27416E-03 1.85409E-04
 -1        45 2.80854E-05-9.89668E-04 2.99123E-04
 -1        46-3.31626E-05-7.24227E-04 3.42252E-04
 -1        47 4.26625E-05-2.93241E-04 2.25085E-04
 -1        48-4.26537E-05-2.93245E-04 2.25097E-04
 -1        49 3.32186E-05-7.24245E-04 3.42254E-04
 -1        50-2.80988E-05-9.89649E-04 2.99072E-04
 -1        51-1.21031E-04-1.27412E-03 1.85366E-04
 -1        74-1.18722E-04-1.27879E-03-1.85391E-04
 -1        75-2.63808E-05-9.91919E-04-2.98970E-04
 -1        76 3.19882E-05-7.22675E-04-3.42150E-04
 -1        77-4.31400E-05-2.92517E-04-2.25098E-04
 -1        89 1.18748E-04-1.27890E-03-1.85450E-04
 -1        90 2.63585E-05-9.91962E-04-2.99028E-04
 -1        91-3.19526E-05-7.22670E-04-3.42157E-04
 -1        92 4.31421E-05-2.92519E-04-2.25092E-04
 -1        98 0.00000E+00 0.00000E+00 0.00000E+00
 -1        99 0.00000E+00 0.00000E+00 0.00000E+00
 -1       100 0.00000E+00 0.00000E+00 0.00000E+00
 -1       101 0.00000E+00 0.00000E+00 0.00000E+00
 -1       102 0.00000E+00 0.00000E+00 0.00000E+00
 -1       124-3.82437E-06-1.17262E-03 1.74732E-04
 -1       125-2.80438E-08-1.40051E-03 1.83354E-04
 -1       126 3.85339E-06-1.17259E-03 1.74676E-04
 -1       127 3.92278E-08-1.03134E-03 3.30420E-04
 -1       128 2.76946E-06-7.59730E-04 3.67213E-04
 -1       129-1.09826E-08-7.04596E-04 3.74302E-04
 -1       130-2.75805E-06-7.59731E-04 3.67229E-04
 -1       131 7.38730E-09-2.97487E-04 2.18712E-04
 -1       153-9.99286E-05-1.52054E-03 8.24028E-05
 -1       154-1.46134E-07-1.34571E-03 5.87979E-08
 -1       155 9.95213E-05-1.52003E-03-8.23376E-05
 -1       156-4.68452E-07-1.11445E-03-2.33005E-07
 -1       157 2.01304E-05-6.28422E-04 1.47343E-04
 -1       158 3.53216E-07-6.41943E-04-1.02309E-07
 -1       159-1.99941E-05-6.28348E-04-1.47314E-04
 -1       160 1.23950E-07-2.43997E-04 1.23456E-09
 -1       182-5.28509E-06-1.17066E-03-1.74701E-04
 -1       183-2.98839E-08-1.40356E-03-1.83390E-04
 -1       184 5.28533E-06-1.17067E-03-1.74703E-04
 -1       185 1.75004E-08-1.03197E-03-3.30017E-04
 -1       186 2.79414E-06-7.60216E-04-3.67244E-04
 -1       187-1.14918E-08-7.04249E-04-3.74185E-04
 -1       188-2.79329E-06-7.60222E-04-3.67256E-04
 -1       189 3.37547E-09-2.97268E-04-2.18658E-04
 -1       211-9.94420E-05-1.52012E-03-8.23733E-05
 -1       212 2.13225E-07-1.34575E-03-5.87655E-08
 -1       213 1.00033E-04-1.52051E-03 8.23807E-05
 -1       214 5.23975E-07-1.11446E-03-2.57736E-07
 -1       215 2.00052E-05-6.28344E-04-1.47334E-04
 -1       216-3.55124E-07-6.41951E-04-1.09462E-07
 -1       217-2.01087E-05-6.28440E-04 1.47326E-04
 -1       218-1.18382E-07-2.44000E-04-1.00332E-08
 -1       250 2.31322E-08-1.51145E-03 8.17332E-05
 -1       251-6.48365E-07-9.57928E-04-1.54968E-08
 -1       252 9.28007E-08-1.22164E-03 6.69035E-09
 -1       253 7.61792E-07-9.57910E-04 7.11067E-08
 -1       254 2.50730E-08-1.51421E-03-8.18601E-05
 -1       255 1.20654E-08-1.09026E-03-2.21546E-08
 -1       256 5.89083E-09-6.20482E-04 1.64303E-04
 -1       257 1.80287E-08-7.24421E-04 5.49645E-09
 -1       258 1.82149E-08-6.42881E-04-3.55402E-09
 -1       259 2.91961E-09-7.24418E-04 2.10430E-09
 -1       260 4.85240E-09-6.20020E-04-1.64300E-04
 -1       261-3.15466E-09-2.75999E-04-1.87763E-08
 -3
    1PSTEP                         4           4           1          
  100CL  104 2.00000E-02          81                     1    4           1
 -4  DISP        4    1
 -5  D1          1    2    1    0
 -5  D2          1    2    2    0
 -5  D3          1    2    3    0
 -5  ALL         1    2    0    0    1ALL
 -1         5 0.00000E+00 0.00000E+00 0.00000E+00
 -1         6 0.00000E+00 0.00000E+00 0.00000E+00
 -1         7 0.00000E+00 0.00000E+00 0.00000E+00
 -1         8 0.00000E+00 0.00000E+00 0.00000E+00
 -1        21 0.00000E+00 0.00000E+00 0.00000E+00
 -1        22 0.00000E+00 0.00000E+00 0.00000E+00
 -1        23 0.00000E+00 0.00000E+00 0.00000E+00
 -1        24 0.00000E+00 0.00000E+00 0.00000E+00
 -1        25 0.00000E+00 0.00000E+00 0.00000E+00
 -1        26 0.00000E+00 0.00000E+00 0.00000E+00
 -1        27 0.00000E+00 0.00000E+00 0.00000E+00
 -1        28 0.00000E+00 0.00000E+00 0.00000E+00
 -1        29 0.00000E+00 0.00000E+00 0.00000E+00
 -1        30 0.00000E+00 0.00000E+00 0.00000E+00
 -1        31 0.00000E+00 0.00000E+00 0.00000E+00
 -1        32 0.00000E+00 0.00000E+00 0.00000E+00
 -1        44-9.81004E-05 9.84574E-04-1.43896E-04
 -1        45-2.38561E-05 7.65766E-04-2.31868E-04
 -1        46 2.64584E-05 5.62873E-04-2.65515E-04
 -1        47-3.25221E-05 2.28195E-04-1.74710E-04
 -1        48 3.25224E-05 2.28196E-04-1.74696E-04
 -1        49-2.64367E-05 5.62861E-04-2.65501E-04
 -1        50 2.38028E-05 7.65804E-04-2.31895E-04
 -1        51 9.80853E-05 9.84615E-04-1.43900E-04
 -1        74 9.03105E-05 9.91388E-04 1.43833E-04
 -1        75 1.97268E-05 7.69732E-04 2.31858E-04
 -1        76-2.49764E-05 5.61479E-04 2.65555E-04
 -1        77 3.36835E-05 2.27124E-04 1.74714E-04
 -1        89-9.04337E-05 9.91332E-04 1.43898E-04
 -1        90-1.97278E-05 7.69719E-04 2.31846E-04
 -1        91 2.49841E-05 5.61501E-04 2.65562E-04
 -1        92-3.36751E-05 2.27128E-04 1.74721E-04
 -1        98 0.00000E+00 0.00000E+00 0.00000E+00
 -1        99 0.00000E+00 0.00000E+00 0.00000E+00
 -1       100 0.00000E+00 0.00000E+00 0.00000E+00
 -1       101 0.00000E+00 0.00000E+00 0.00000E+00
 -1       102 0.00000E+00 0.00000E+00 0.00000E+00
 -1       124 7.45281E-06 9.11033E-04-1.35513E-04
 -1       125-5.47041E-08 1.08594E-03-1.42323E-04
 -1       126-7.50026E-06 9.11056E-04-1.35563E-04
 -1       127 8.26408E-09 8.00575E-04-2.56843E-04
 -1       128-3.03091E-06 5.89370E-04-2.84917E-04
 -1       129-1.89874E-08 5.47043E-04-2.90557E-04
 -1       130 3.01853E-06 5.89368E-04-2.84912E-04
 -1       131 2.70160E-09 2.30835E-04-1.69698E-04
 -1       153 7.90798E-05 1.17518E-03-6.39196E-05
 -1       154-1.54981E-06 1.04425E-03 8.68926E-09
 -1       155-7.64034E-05 1.18324E-03 6.38944E-05
 -1       156-4.86449E-08 8.65002E-04 4.25594E-07
 -1       157-1.58522E-05 4.88668E-04-1.14340E-04
 -1       158 4.25743E-07 4.98089E-04 1.44214E-07
 -1       159 1.52703E-05 4.86936E-04 1.14291E-04
 -1       160-3.34408E-09 1.89366E-04 6.20312E-09
 -1       182-1.07671E-06 9.08841E-04 1.35604E-04
 -1       183-2.61220E-08 1.08793E-03 1.42284E-04
 -1       184 1.01074E-06 9.08844E-04 1.35615E-04
 -1       185 6.79654E-11 8.00081E-04 2.55972E-04
 -1       186-1.25439E-06 5.89829E-04 2.84945E-04
 -1       187 2.32675E-09 5.46614E-04 2.90237E-04
 -1       188 1.25555E-06 5.89833E-04 2.84953E-04
 -1       189 4.11607E-09 2.31004E-04 1.69712E-04
 -1       211 7.63597E-05 1.18319E-03 6.39424E-05
 -1       212 1.54706E-06 1.04426E-03-7.56414E-08
 -1       213-7.90576E-05 1.17523E-03-6.39167E-05
 -1       214 6.44561E-08 8.65003E-04 4.24855E-07
 -1       215-1.52755E-05 4.86958E-04 1.14284E-04
 -1       216-4.36056E-07 4.98103E-04 1.51619E-07
 -1       217 1.58517E-05 4.88664E-04-1.14340E-04
 -1       218 4.71296E-09 1.89369E-04 1.72563E-09
 -1       250-1.06172E-08 1.17616E-03-6.34326E-05
 -1       251-2.74645E-06 7.43117E-04-1.39073E-07
 -1       252 4.89809E-08 9.48468E-04-1.84020E-08
 -1       253 2.78453E-06 7.43107E-04-6.68095E-08
 -1       254 6.77093E-09 1.17019E-03 6.35043E-05
 -1       255-6.09332E-09 8.46071E-04-4.30575E-09
 -1       256-2.27389E-09 4.80910E-04-1.27487E-04
 -1       257 5.69774E-07 5.62263E-04 1.04415E-09
 -1       258 1.11300E-08 4.98945E-04 2.81792E-09
 -1       259-5.60612E-07 5.62257E-04-9.85181E-09
 -1       260 7.79733E-09 4.82227E-04 1.27518E-04
 -1       261-3.34460E-09 2.14175E-04-1.20162E-08
 -3
    1PSTEP                         5           5           1          
  100CL  105 2.50000E-02          81                     1    5           1
 -4  DISP        4    1
 -5  D1          1    2    1    0
 -5  D2          1    2    2    0
 -5  D3          1    2    3    0
 -5  ALL         1    2    0    0    1ALL
 -1         5 0.00000E+00 0.00000E+00 0.00000E+00
 -1         6 0.00000E+00 0.00000E+00 0.00000E+00
 -1         7 0.00000E+00 0.00000E+00 0.00000E+00
 -1         8 0.00000E+00 0.00000E+00 0.00000E+00
 -1        21 0.00000E+00 0.00000E+00 0.00000E+00
 -1        22 0.00000E+00 0.00000E+00 0.00000E+00
 -1        23 0.00000E+00 0.00000E+00 0.00000E+00
 -1        24 0.00000E+00 0.00000E+00 0.00000E+00
 -1        25 0.00000E+00 0.00000E+00 0.00000E+00
 -1        26 0.00000E+00 0.00000E+00 0.00000E+00
 -1        27 0.00000E+00 0.00000E+00 0.00000E+00
 -1        28 0.00000E+00 0.00000E+00 0.00000E+00
 -1        29 0.00000E+00 0.00000E+00 0.00000E+00
 -1        30 0.00000E+00 0.00000E+00 0.00000E+00
 -1        31 0.00000E+00 0.00000E+00 0.00000E+00
 -1        32 0.00000E+00 0.00000E+00 0.00000E+00
 -1        44 7.31760E-05-7.44721E-04 1.08702E-04
 -1        45 1.70818E-05-5.79025E-04 1.75235E-04
 -1        46-1.98241E-05-4.24702E-04 2.00259E-04
 -1        47 2.47475E-05-1.72117E-04 1.31906E-04
 -1        48-2.47426E-05-1.72121E-04 1.31932E-04
 -1        49 1.98607E-05-4.24729E-04 2.00291E-04
 -1        50-1.71590E-05-5.78989E-04 1.75204E-04
 -1        51-7.32498E-05-7.44636E-04 1.08720E-04
 -1        74-7.19718E-05-7.46327E-04-1.08628E-04
 -1        75-1.63899E-05-5.79937E-04-1.75000E-04
 -1        76 1.94346E-05-4.24176E-04-2.00301E-04
 -1        77-2.49617E-05-1.71837E-04-1.31963E-04
 -1        89 7.17445E-05-7.46515E-04-1.08580E-04
 -1        90 1.63607E-05-5.79969E-04-1.75030E-04
 -1        91-1.94333E-05-4.24156E-04-2.00290E-04
 -1        92 2.49681E-05-1.71833E-04-1.31953E-04
 -1        98 0.00000E+00 0.00000E+00 0.00000E+00
 -1        99 0.00000E+00 0.00000E+00 0.00000E+00
 -1       100 0.00000E+00 0.00000E+00 0.00000E+00
 -1       101 0.00000E+00 0.00000E+00 0.00000E+00
 -1       102 0.00000E+00 0.00000E+00 0.00000E+00
 -1       124-3.19267E-06-6.87394E-04 1.02381E-04
 -1       125-9.39186E-08-8.20360E-04 1.07502E-04
 -1       126 3.09233E-06-6.87360E-04 1.02290E-04
 -1       127 1.61711E-08-6.04549E-04 1.93600E-04
 -1       128 1.75631E-06-4.44894E-04 2.15102E-04
 -1       129-2.61321E-08-4.12600E-04 2.19352E-04
 -1       130-1.77217E-06-4.44896E-04 2.15104E-04
 -1       131 6.11592E-09-1.74229E-04 1.28076E-04
 -1       153-5.98307E-05-8.91086E-04 4.82532E-05
 -1       154 2.27416E-08-7.90580E-04 1.73311E-07
 -1       155 5.95310E-05-8.91284E-04-4.82981E-05
 -1       156-1.30075E-07-6.52859E-04-1.18294E-07
 -1       157 1.20764E-05-3.68505E-04 8.62453E-05
 -1       158 5.36412E-08-3.76379E-04-4.84641E-08
 -1       159-1.20069E-05-3.68399E-04-8.62143E-05
 -1       160 3.96353E-08-1.42858E-04 3.33475E-09
 -1       182-2.84718E-06-6.86592E-04-1.02377E-04
 -1       183-5.87778E-08-8.21292E-04-1.07338E-04
 -1       184 2.71062E-06-6.86634E-04-1.02411E-04
 -1       185-1.76050E-08-6.04663E-04-1.93372E-04
 -1       186 1.63891E-06-4.45058E-04-2.15095E-04
 -1       187-2.59211E-09-4.12471E-04-2.19295E-04
 -1       188-1.64952E-06-4.45060E-04-2.15079E-04
 -1       189 3.50842E-09-1.74179E-04-1.28076E-04
 -1       211-5.96001E-05-8.91430E-04-4.82492E-05
 -1       212-1.01658E-08-7.90605E-04 2.07840E-08
 -1       213 5.98494E-05-8.91011E-04 4.82932E-05
 -1       214 1.37941E-07-6.52865E-04-1.18856E-07
 -1       215 1.19914E-05-3.68378E-04-8.62235E-05
 -1       216-6.97287E-08-3.76373E-04-2.93050E-08
 -1       217-1.20764E-05-3.68523E-04 8.62467E-05
 -1       218-4.01116E-08-1.42858E-04 2.79452E-09
 -1       250-2.41958E-08-8.84811E-04 4.79405E-05
 -1       251 8.09865E-08-5.61071E-04 6.18775E-08
 -1       252 7.30559E-08-7.15075E-04-3.06151E-08
 -1       253-2.01696E-08-5.61062E-04 1.64488E-07
 -1       254 1.11461E-09-8.85043E-04-4.79200E-05
 -1       255-1.05672E-08-6.39046E-04-2.67849E-08
 -1       256-4.11858E-09-3.63328E-04 9.63136E-05
 -1       257-3.56915E-08-4.24583E-04-3.17191E-09
 -1       258 1.18721E-08-3.76298E-04 4.88058E-09
 -1       259 4.52850E-08-4.24585E-04-1.93340E-08
 -1       260 5.73805E-09-3.63313E-04-9.63131E-05
 -1       261-5.77619E-09-1.61685E-04 7.13797E-09
 -3
    1PSTEP                         6           6           1          
  100CL  106 3.00000E-02          81                     1    6           1
 -4  DISP        4    1
 -5  D1          1    2    1    0
 -5  D2          1    2    2    0
 -5  D3          1    2    3    0
 -5  ALL         1    2    0    0    1ALL
 -1         5 0.00000E+00 0.00000E+00 0.00000E+00
 -1         6 0.00000E+00 0.00000E+00 0.00000E+00
 -1         7 0.00000E+00 0.00000E+00 0.00000E+00
 -1         8 0.00000E+00 0.00000E+00 0.00000E+00
 -1        21 0.00000E+00 0.00000E+00 0.00000E+00
 -1        22 0.00000E+00 0.00000E+00 0.00000E+00
 -1        23 0.00000E+00 0.00000E+00 0.00000E+00
 -1        24 0.00000E+00 0.00000E+00 0.00000E+00
 -1        25 0.00000E+00 0.00000E+00 0.00000E+00
 -1        26 0.00000E+00 0.00000E+00 0.00000E+00
 -1        27 0.00000E+00 0.00000E+00 0.00000E+00
 -1        28 0.00000E+00 0.00000E+00 0.00000E+00
 -1        29 0.00000E+00 0.00000E+00 0.00000E+00
 -1        30 0.00000E+00 0.00000E+00 0.00000E+00
 -1        31 0.00000E+00 0.00000E+00 0.00000E+00
 -1        32 0.00000E+00 0.00000E+00 0.00000E+00
 -1        44-5.32507E-05 5.39646E-04-7.88424E-05
 -1        45-1.27964E-05 4.19533E-04-1.27056E-04
 -1        46 1.44123E-05 3.08157E-04-1.45401E-04
 -1        47-1.78640E-05 1.24880E-04-9.56539E-05