    1C
    1UUSER                                                              
    1UDATE              15.july.2018                                    
    1UTIME              15:04:24                                        
    1UHOST                                                              
    1UPGM               CalculiX                                        
    1UVERSION           Version 2.13                             
    1UCOMPILETIME       jue jun 14 00:40:39 CEST 2018                    
    1UDIR                                                               
    1UDBN                                                               
    1UMAT    1EL                                                        
    2C                            81                                     1
 -1         5 0.00000E+00 0.00000E+00 8.00000E+00
 -1         6 1.00000E+00 0.00000E+00 8.00000E+00
 -1         7 1.00000E+00 1.00000E+00 8.00000E+00
 -1         8 0.00000E+00 1.00000E+00 8.00000E+00
 -1        21 2.50000E-01 0.00000E+00 8.00000E+00
 -1        22 5.00000E-01 0.00000E+00 8.00000E+00
 -1        23 7.50000E-01 0.00000E+00 8.00000E+00
 -1        24 1.00000E+00 2.50000E-01 8.00000E+00
 -1        25 1.00000E+00 5.00000E-01 8.00000E+00
 -1        26 1.00000E+00 7.50000E-01 8.00000E+00
 -1        27 7.50000E-01 1.00000E+00 8.00000E+00
 -1        28 5.00000E-01 1.00000E+00 8.00000E+00
 -1        29 2.50000E-01 1.00000E+00 8.00000E+00
 -1        30 0.00000E+00 7.50000E-01 8.00000E+00
 -1        31 0.00000E+00 5.00000E-01 8.00000E+00
 -1        32 0.00000E+00 2.50000E-01 8.00000E+00
 -1        44 1.00000E+00 0.00000E+00 6.00000E+00
 -1        45 1.00000E+00 0.00000E+00 6.50000E+00
 -1        46 1.00000E+00 0.00000E+00 7.00000E+00
 -1        47 1.00000E+00 0.00000E+00 7.50000E+00
 -1        48 0.00000E+00 0.00000E+00 7.50000E+00
 -1        49 0.00000E+00 0.00000E+00 7.00000E+00
 -1        50 0.00000E+00 0.00000E+00 6.50000E+00
 -1        51 0.00000E+00 0.00000E+00 6.00000E+00
 -1        74 1.00000E+00 1.00000E+00 6.00000E+00
 -1        75 1.00000E+00 1.00000E+00 6.50000E+00
 -1        76 1.00000E+00 1.00000E+00 7.00000E+00
 -1        77 1.00000E+00 1.00000E+00 7.50000E+00
 -1        89 0.00000E+00 1.00000E+00 6.00000E+00
 -1        90 0.00000E+00 1.00000E+00 6.50000E+00
 -1        91 0.00000E+00 1.00000E+00 7.00000E+00
 -1        92 0.00000E+00 1.00000E+00 7.50000E+00
 -1        98 5.00000E-01 2.50000E-01 8.00000E+00
 -1        99 2.50000E-01 5.00000E-01 8.00000E+00
 -1       100 5.00000E-01 5.00000E-01 8.00000E+00
 -1       101 7.50000E-01 5.00000E-01 8.00000E+00
 -1       102 5.00000E-01 7.50000E-01 8.00000E+00
 -1       124 2.50000E-01 0.00000E+00 6.00000E+00
 -1       125 5.00000E-01 0.00000E+00 6.00000E+00
 -1       126 7.50000E-01 0.00000E+00 6.00000E+00
 -1       127 5.00000E-01 0.00000E+00 6.50000E+00
 -1       128 2.50000E-01 0.00000E+00 7.00000E+00
 -1       129 5.00000E-01 0.00000E+00 7.00000E+00
 -1       130 7.50000E-01 0.00000E+00 7.00000E+00
 -1       131 5.00000E-01 0.00000E+00 7.50000E+00
 -1       153 1.00000E+00 2.50000E-01 6.00000E+00
 -1       154 1.00000E+00 5.00000E-01 6.00000E+00
 -1       155 1.00000E+00 7.50000E-01 6.00000E+00
 -1       156 1.00000E+00 5.00000E-01 6.50000E+00
 -1       157 1.00000E+00 2.50000E-01 7.00000E+00
 -1       158 1.00000E+00 5.00000E-01 7.00000E+00
 -1       159 1.00000E+00 7.50000E-01 7.00000E+00
 -1       160 1.00000E+00 5.00000E-01 7.50000E+00
 -1       182 7.50000E-01 1.00000E+00 6.00000E+00
 -1       183 5.00000E-01 1.00000E+00 6.00000E+00
 -1       184 2.50000E-01 1.00000E+00 6.00000E+00
 -1       185 5.00000E-01 1.00000E+00 6.50000E+00
 -1       186 7.50000E-01 1.00000E+00 7.00000E+00
 -1       187 5.00000E-01 1.00000E+00 7.00000E+00
 -1       188 2.50000E-01 1.00000E+00 7.00000E+00
 -1       189 5.00000E-01 1.00000E+00 7.50000E+00
 -1       211 0.00000E+00 7.50000E-01 6.00000E+00
 -1       212 0.00000E+00 5.00000E-01 6.00000E+00
 -1       213 0.00000E+00 2.50000E-01 6.00000E+00
 -1       214 0.00000E+00 5.00000E-01 6.50000E+00
 -1       215 0.00000E+00 7.50000E-01 7.00000E+00
 -1       216 0.00000E+00 5.00000E-01 7.00000E+00
 -1       217 0.00000E+00 2.50000E-01 7.00000E+00
 -1       218 0.00000E+00 5.00000E-01 7.50000E+00
 -1       250 5.00000E-01 2.50000E-01 6.00000E+00
 -1       251 2.50000E-01 5.00000E-01 6.00000E+00
 -1       252 5.00000E-01 5.00000E-01 6.00000E+00
 -1       253 7.50000E-01 5.00000E-01 6.00000E+00
 -1       254 5.00000E-01 7.50000E-01 6.00000E+00
 -1       255 5.00000E-01 5.00000E-01 6.50000E+00
 -1       256 5.00000E-01 2.50000E-01 7.00000E+00
 -1       257 2.50000E-01 5.00000E-01 7.00000E+00
 -1       258 5.00000E-01 5.00000E-01 7.00000E+00
 -1       259 7.50000E-01 5.00000E-01 7.00000E+00
 -1       260 5.00000E-01 7.50000E-01 7.00000E+00
 -1       261 5.00000E-01 5.00000E-01 7.50000E+00
 -3
    3C                             8                                     1
 -1        25    4    0    1
 -2        51       125       252       212        49       129       258       216       124       250
 -2       251       213        50       127       255       214       128       256       257       217
 -1        26    4    0    1
 -2       125        44       154       252       129        46       158       258       126       153
 -2       253       250       127        45       156       255       130       157       259       256
 -1        27    4    0    1
 -2       212       252       183        89       216       258       187        91       251       254
 -2       184       211       214       255       185        90       257       260       188       215
 -1        28    4    0    1
 -2       252       154        74       183       258       158        76       187       253       155
 -2       182       254       255       156        75       185       259       159       186       260
 -1        29    4    0    1
 -2        49       129       258       216         5        22       100        31       128       256
 -2       257       217        48       131       261       218        21        98        99        32
 -1        30    4    0    1
 -2       129        46       158       258        22         6        25       100       130       157
 -2       259       256       131        47       160       261        23        24       101        98
 -1        31    4    0    1
 -2       216       258       187        91        31       100        28         8       257       260
 -2       188       215       218       261       189        92        99       102        29        30
 -1        32    4    0    1
 -2       258       158        76       187       100        25         7        28       259       159
 -2       186       260       261       160        77       189       101        26        27       102
 -3
    1PSTEP                         1           1           1          
  100CL  101 5.00000E-03          81                     1    1           1
 -4  DISP        4    1
 -5  D1          1    2    1    0
 -5  D2          1    2    2    0
 -5  D3          1    2    3    0
 -5  ALL         1    2    0    0    1ALL
 -1         5 0.00000E+00 0.00000E+00 0.00000E+00
 -1         6 0.00000E+00 0.00000E+00 0.00000E+00
 -1         7 0.00000E+00 0.00000E+00 0.00000E+00
 -1         8 0.00000E+00 0.00000E+00 0.00000E+00
 -1        21 0.00000E+00 0.00000E+00 0.00000E+00
 -1        22 0.00000E+00 0.00000E+00 0.00000E+00
 -1        23 0.00000E+00 0.00000E+00 0.00000E+00
 -1        24 0.00000E+00 0.00000E+00 0.00000E+00
 -1        25 0.00000E+00 0.00000E+00 0.00000E+00
 -1        26 0.00000E+00 0.00000E+00 0.00000E+00
 -1        27 0.00000E+00 0.00000E+00 0.00000E+00
 -1        28 0.00000E+00 0.00000E+00 0.00000E+00
 -1        29 0.00000E+00 0.00000E+00 0.00000E+00
 -1        30 0.00000E+00 0.00000E+00 0.00000E+00
 -1        31 0.00000E+00 0.00000E+00 0.00000E+00
 -1        32 0.00000E+00 0.00000E+00 0.00000E+00
 -1        44-7.07995E-05-3.46748E-03 4.47659E-04
 -1        45 5.48103E-05-2.55860E-03 7.85146E-04
 -1        46-4.49335E-05-1.79492E-03 9.49736E-04
 -1        47 1.31397E-04-6.74140E-04 5.42133E-04
 -1        48-1.31427E-04-6.74157E-04 5.42180E-04
 -1        49 4.48329E-05-1.79493E-03 9.49827E-04
 -1        50-5.50334E-05-2.55861E-03 7.85286E-04
 -1        51 7.04284E-05-3.46750E-03 4.47832E-04
 -1        74 3.52634E-04-4.41752E-03-4.93986E-04
 -1        75 2.02814E-04-2.97392E-03-7.85706E-04
 -1        76-1.16139E-04-1.59684E-03-9.51214E-04
 -1        77-2.11321E-04-5.24868E-04-5.57072E-04
 -1        89-3.53005E-04-4.41750E-03-4.93822E-04
 -1        90-2.03034E-04-2.97391E-03-7.85575E-04
 -1        91 1.16035E-04-1.59683E-03-9.51117E-04
 -1        92 2.11292E-04-5.24853E-04-5.57025E-04
 -1        98 0.00000E+00 0.00000E+00 0.00000E+00
 -1        99 0.00000E+00 0.00000E+00 0.00000E+00
 -1       100 0.00000E+00 0.00000E+00 0.00000E+00
 -1       101 0.00000E+00 0.00000E+00 0.00000E+00
 -1       102 0.00000E+00 0.00000E+00 0.00000E+00
 -1       124 1.39972E-04-2.96343E-03 4.28476E-04
 -1       125-1.89065E-07-3.57992E-03 4.47725E-04
 -1       126-1.40342E-04-2.96342E-03 4.28395E-04
 -1       127-1.07205E-07-2.55822E-03 9.01888E-04
 -1       128-7.22449E-06-1.95263E-03 9.47230E-04
 -1       129-5.00602E-08-1.81523E-03 9.39693E-04
 -1       130 7.12562E-06-1.95263E-03 9.47184E-04
 -1       131-1.01780E-08-7.36708E-04 5.56254E-04
 -1       153 7.89130E-05-3.61808E-03 1.90405E-04
 -1       154-1.10747E-04-2.48224E-03-2.08886E-05
 -1       155-8.52551E-05-3.89174E-03-2.37447E-04
 -1       156-1.17019E-04-2.78679E-03-6.52742E-05
 -1       157-2.31493E-05-1.50908E-03 3.92499E-04
 -1       158 8.50033E-05-1.56415E-03-2.95593E-05
 -1       159 5.16649E-05-1.47127E-03-4.11143E-04
 -1       160 3.88941E-05-6.57465E-04 4.79209E-06
 -1       182 1.34424E-04-2.56139E-03-4.69860E-04
 -1       183-1.75530E-07-4.33620E-03-4.75939E-04
 -1       184-1.34782E-04-2.56138E-03-4.69774E-04
 -1       185-1.08536E-07-2.82175E-03-8.70631E-04
 -1       186-4.75934E-05-2.16156E-03-9.81848E-04
 -1       187-4.73575E-08-1.83513E-03-9.60888E-04
 -1       188 4.74955E-05-2.16155E-03-9.81801E-04
 -1       189-1.05543E-08-7.22466E-04-5.64560E-04
 -1       211 8.48851E-05-3.89173E-03-2.37279E-04
 -1       212 1.10386E-04-2.48225E-03-2.07263E-05
 -1       213-7.92858E-05-3.61809E-03 1.90568E-04
 -1       214 1.16782E-04-2.78679E-03-6.51429E-05
 -1       215-5.17695E-05-1.47127E-03-4.11048E-04
 -1       216-8.51051E-05-1.56415E-03-2.94634E-05
 -1       217 2.30471E-05-1.50908E-03 3.92593E-04
 -1       218-3.89316E-05-6.57464E-04 4.84129E-06
 -1       250-1.98338E-07-4.08989E-03 1.74155E-04
 -1       251 3.73353E-05-2.56871E-03-1.04077E-05
 -1       252-2.02707E-07-3.12868E-03-1.59807E-05
 -1       253-3.77161E-05-2.56871E-03-1.05057E-05
 -1       254-1.90324E-07-4.39574E-03-2.54028E-04
 -1       255-1.07063E-07-2.59698E-03-3.17694E-05
 -1       256-5.41608E-08-1.60547E-03 3.94505E-04
 -1       257-4.21836E-05-1.74693E-03-1.19646E-05
 -1       258-5.68559E-08-1.79012E-03-1.45652E-05
 -1       259 4.20774E-05-1.74693E-03-1.20079E-05
 -1       260-5.29713E-08-1.62643E-03-4.17268E-04
 -1       261-1.26320E-08-7.16003E-04-1.83226E-06
 -3
    1PSTEP                         2           2           1          
  100CL  102 1.00000E-02          81                     1    2           1
 -4  DISP        4    1
 -5  D1          1    2    1    0
 -5  D2          1    2    2    0
 -5  D3          1    2    3    0
 -5  ALL         1    2    0    0    1ALL
 -1         5 0.00000E+00 0.00000E+00 0.00000E+00
 -1         6 0.00000E+00 0.00000E+00 0.00000E+00
 -1         7 0.00000E+00 0.00000E+00 0.00000E+00
 -1         8 0.00000E+00 0.00000E+00 0.00000E+00
 -1        21 0.00000E+00 0.00000E+00 0.00000E+00
 -1        22 0.00000E+00 0.00000E+00 0.00000E+00
 -1        23 0.00000E+00 0.00000E+00 0.00000E+00
 -1        24 0.00000E+00 0.00000E+00 0.00000E+00
 -1        25 0.00000E+00 0.00000E+00 0.00000E+00
 -1        26 0.00000E+00 0.00000E+00 0.00000E+00
 -1        27 0.00000E+00 0.00000E+00 0.00000E+00
 -1        28 0.00000E+00 0.00000E+00 0.00000E+00
 -1        29 0.00000E+00 0.00000E+00 0.00000E+00
 -1        30 0.00000E+00 0.00000E+00 0.00000E+00
 -1        31 0.00000E+00 0.00000E+00 0.00000E+00
 -1        32 0.00000E+00 0.00000E+00 0.00000E+00
 -1        44-1.41201E-04 1.62234E-03-2.33857E-04
 -1        45-2.96724E-05 1.25718E-03-3.77323E-04
 -1        46 3.83733E-05 9.09099E-04-4.32344E-04
 -1        47-5.56743E-05 3.67534E-04-2.83849E-04
 -1        48 5.57219E-05 3.67563E-04-2.83947E-04
 -1        49-3.82628E-05 9.09130E-04-4.32520E-04
 -1        50 3.01224E-05 1.25717E-03-3.77452E-04
 -1        51 1.41746E-04 1.62216E-03-2.33937E-04
 -1        74 1.54444E-04 1.61390E-03 2.34274E-04
 -1        75 3.67741E-05 1.25152E-03 3.77429E-04
 -1        76-4.16366E-05 9.12197E-04 4.32515E-04
 -1        77 5.38171E-05 3.69024E-04 2.84038E-04
 -1        89-1.53685E-04 1.61409E-03 2.33978E-04
 -1        90-3.63526E-05 1.25150E-03 3.77222E-04
 -1        91 4.17633E-05 9.12185E-04 4.32341E-04
 -1        92-5.37711E-05 3.68990E-04 2.83935E-04
 -1        98 0.00000E+00 0.00000E+00 0.00000E+00
 -1        99 0.00000E+00 0.00000E+00 0.00000E+00
 -1       100 0.00000E+00 0.00000E+00 0.00000E+00
 -1       101 0.00000E+00 0.00000E+00 0.00000E+00
 -1       102 0.00000E+00 0.00000E+00 0.00000E+00
 -1       124 3.53106E-06 1.47546E-03-2.20522E-04
 -1       125 3.61726E-07 1.77431E-03-2.31313E-04
 -1       126-2.92125E-06 1.47548E-03-2.20401E-04
 -1       127 1.67561E-07 1.30113E-03-4.16523E-04
 -1       128-2.60334E-06 9.60271E-04-4.63766E-04
 -1       129 1.02895E-07 8.89847E-04-4.72090E-04
 -1       130 2.76635E-06 9.60268E-04-4.63702E-04
 -1       131 1.12046E-08 3.75398E-04-2.76123E-04
 -1       153 1.21550E-04 1.91772E-03-1.03760E-04
 -1       154 3.82805E-06 1.69248E-03 3.07437E-07
 -1       155-1.26019E-04 1.91320E-03 1.04345E-04
 -1       156 6.18729E-07 1.40748E-03-4.19154E-07
 -1       157-2.43262E-05 7.91496E-04-1.86122E-04
 -1       158-5.72305E-07 8.09073E-04-6.59073E-08
 -1       159 2.54962E-05 7.93072E-04 1.86479E-04
 -1       160-1.68695E-07 3.08042E-04-2.46340E-08
 -1       182 9.81602E-06 1.47800E-03 2.20784E-04
 -1       183 4.12433E-07 1.77354E-03 2.31183E-04
 -1       184-9.06654E-06 1.47803E-03 2.20610E-04
 -1       185 1.66377E-07 1.30338E-03 4.18081E-04
 -1       186-4.18766E-06 9.60321E-04 4.63836E-04
 -1       187 9.67247E-08 8.90003E-04 4.72847E-04
 -1       188 4.35400E-06 9.60329E-04 4.63756E-04
 -1       189 1.05159E-08 3.75142E-04 2.76233E-04
 -1       211 1.26698E-04 1.91330E-03 1.03958E-04
 -1       212-3.18529E-06 1.69240E-03 1.23117E-07
 -1       213-1.21015E-04 1.91756E-03-1.03974E-04
 -1       214-2.70203E-07 1.40751E-03-6.39144E-07
 -1       215-2.53237E-05 7.93043E-04 1.86340E-04
 -1       216 7.74605E-07 8.09045E-04-2.34748E-07
 -1       217 2.44982E-05 7.91505E-04-1.86272E-04
 -1       218 2.26111E-07 3.08043E-04-1.01001E-07
 -1       250 3.05834E-07 1.91557E-03-1.03186E-04
 -1       251 7.09916E-07 1.21003E-03 2.10845E-07
 -1       252 2.30708E-07 1.54358E-03 6.76602E-08
 -1       253-1.48716E-07 1.21009E-03 2.70598E-07
 -1       254 3.36825E-07 1.91885E-03 1.03130E-04
 -1       255 1.86028E-07 1.37448E-03 1.75732E-07
 -1       256 8.88390E-08 7.83383E-04-2.07153E-04
 -1       257-2.69123E-08 9.13969E-04 2.65595E-08
 -1       258 7.41274E-08 8.13365E-04 6.95245E-08
 -1       259 1.94451E-07 9.13979E-04 1.18143E-07
 -1       260 8.40515E-08 7.82666E-04 2.07251E-04
 -1       261 2.75154E-08 3.48694E-04 1.44786E-08
 -3
    1PSTEP                         3           3           1          
  100CL  103 1.50000E-02          81                     1    3           1
 -4  DISP        4    1
 -5  D1          1    2    1    0
 -5  D2          1    2    2    0
 -5  D3          1    2    3    0
 -5  ALL         1    2    0    0    1ALL
 -1         5 0.00000E+00 0.00000E+00 0.00000E+00
 -1         6 0.00000E+00 0.00000E+00 0.00000E+00
 -1         7 0.00000E+00 0.00000E+00 0.00000E+00
 -1         8 0.00000E+00 0.00000E+00 0.00000E+00
 -1        21 0.00000E+00 0.00000E+00 0.00000E+00
 -1        22 0.00000E+00 0.00000E+00 0.00000E+00
 -1        23 0.00000E+00 0.00000E+00 0.00000E+00
 -1        24 0.00000E+00 0.00000E+00 0.00000E+00
 -1        25 0.00000E+00 0.00000E+00 0.00000E+00
 -1        26 0.00000E+00 0.00000E+00 0.00000E+00
 -1        27 0.00000E+00 0.00000E+00 0.00000E+00
 -1        28 0.00000E+00 0.00000E+00 0.00000E+00
 -1        29 0.00000E+00 0.00000E+00 0.00000E+00
 -1        30 0.00000E+00 0.00000E+00 0.00000E+00
 -1        31 0.00000E+00 0.00000E+00 0.00000E+00
 -1        32 0.00000E+00 0.00000E+00 0.00000E+00
 -1        44 1.14422E-04-1.28034E-03 1.85375E-04
 -1        45 2.53868E-05-9.93035E-04 2.98428E-04
 -1        46-3.11611E-05-7.21738E-04 3.42615E-04
 -1        47 4.36781E-05-2.91889E-04 2.24967E-04
 -1        48-4.36530E-05-2.91870E-04 2.24880E-04
 -1        49 3.11325E-05-7.21703E-04 3.42500E-04
 -1        50-2.50561E-05-9.93094E-04 2.98438E-04
 -1        51-1.14261E-04-1.28051E-03 1.85414E-04
 -1        74-1.18958E-04-1.27590E-03-1.85359E-04
 -1        75-2.78731E-05-9.90308E-04-2.98451E-04
 -1        76 3.29175E-05-7.23490E-04-3.42518E-04
 -1        77-4.28398E-05-2.92682E-04-2.24894E-04
 -1        89 1.19305E-04-1.27564E-03-1.85378E-04
 -1        90 2.81489E-05-9.90269E-04-2.98440E-04
 -1        91-3.29097E-05-7.23523E-04-3.42638E-04
 -1        92 4.28582E-05-2.92700E-04-2.24974E-04
 -1        98 0.00000E+00 0.00000E+00 0.00000E+00
 -1        99 0.00000E+00 0.00000E+00 0.00000E+00
 -1       100 0.00000E+00 0.00000E+00 0.00000E+00
 -1       101 0.00000E+00 0.00000E+00 0.00000E+00
 -1       102 0.00000E+00 0.00000E+00 0.00000E+00
 -1       124-3.18746E-06-1.16957E-03 1.74477E-04
 -1       125 2.99234E-07-1.40360E-03 1.83014E-04
 -1       126 3.52747E-06-1.16962E-03 1.74663E-04
 -1       127 3.38025E-08-1.03065E-03 3.30299E-04
 -1       128 2.43831E-06-7.60510E-04 3.67176E-04
 -1       129 9.87481E-08-7.04877E-04 3.73821E-04
 -1       130-2.34255E-06-7.60503E-04 3.67184E-04
 -1       131-2.89130E-09-2.97551E-04 2.18758E-04
 -1       153-9.63235E-05-1.51579E-03 8.23513E-05
 -1       154-7.84314E-07-1.33785E-03-1.14163E-07
 -1       155 9.82929E-05-1.51630E-03-8.22233E-05
 -1       156 1.65588E-07-1.11490E-03 3.52153E-07
 -1       157 1.92155E-05-6.27490E-04 1.47536E-04
 -1       158 2.27322E-08-6.40612E-04 1.54118E-07
 -1       159-1.95282E-05-6.27684E-04-1.47535E-04
 -1       160 1.25416E-08-2.44256E-04 3.45223E-08
 -1       182-2.92661E-06-1.17135E-03-1.74598E-04
 -1       183 2.58916E-07-1.40200E-03-1.83033E-04
 -1       184 3.31190E-06-1.17133E-03-1.74726E-04
 -1       185 5.89379E-08-1.03097E-03-3.30944E-04
 -1       186 2.65720E-06-7.60170E-04-3.67139E-04
 -1       187 7.08496E-08-7.04776E-04-3.74076E-04
 -1       188-2.57028E-06-7.60167E-04-3.67168E-04
 -1       189-1.10364E-09-2.97532E-04-2.18810E-04
 -1       211-9.80567E-05-1.51610E-03-8.24028E-05
 -1       212 1.04921E-06-1.33783E-03 2.82221E-08
 -1       213 9.64518E-05-1.51593E-03 8.22668E-05
 -1       214-4.46005E-08-1.11489E-03 2.72961E-07
 -1       215 1.96089E-05-6.27720E-04-1.47583E-04
 -1       216 1.01031E-07-6.40623E-04 6.31739E-08
 -1       217-1.91507E-05-6.27465E-04 1.47476E-04
 -1       218 1.41716E-08-2.44257E-04 4.00762E-09
 -1       250 1.72759E-07-1.51731E-03 8.17188E-05
 -1       251 9.31293E-07-9.58010E-04 5.92750E-10
 -1       252-3.23196E-09-1.22418E-03-1.72863E-08
 -1       253-7.78561E-07-9.58015E-04-1.47846E-07
 -1       254 1.44987E-07-1.51563E-03-8.16056E-05
 -1       255 9.25785E-08-1.08833E-03-2.84790E-08
 -1       256 5.39741E-08-6.20718E-04 1.64050E-04
 -1       257-4.35258E-08-7.23937E-04-4.10198E-08
 -1       258 1.72725E-08-6.44541E-04-4.44890E-09
 -1       259 1.12814E-07-7.23933E-04 2.30285E-08
 -1       260 4.14005E-08-6.20882E-04-1.64068E-04
 -1       261 2.17820E-08-2.76153E-04 1.82136E-09
 -3
    1PSTEP                         4           4           1          
  100CL  104 2.00000E-02          81                     1    4           1
 -4  DISP        4    1
 -5  D1          1    2    1    0
 -5  D2          1    2    2    0
 -5  D3          1    2    3    0
 -5  ALL         1    2    0    0    1ALL
 -1         5 0.00000E+00 0.00000E+00 0.00000E+00
 -1         6 0.00000E+00 0.00000E+00 0.00000E+00
 -1         7 0.00000E+00 0.00000E+00 0.00000E+00
 -1         8 0.00000E+00 0.00000E+00 0.00000E+00
 -1        21 0.00000E+00 0.00000E+00 0.00000E+00
 -1        22 0.00000E+00 0.00000E+00 0.00000E+00
 -1        23 0.00000E+00 0.00000E+00 0.00000E+00
 -1        24 0.00000E+00 0.00000E+00 0.00000E+00
 -1        25 0.00000E+00 0.00000E+00 0.00000E+00
 -1        26 0.00000E+00 0.00000E+00 0.00000E+00
 -1        27 0.00000E+00 0.00000E+00 0.00000E+00
 -1        28 0.00000E+00 0.00000E+00 0.00000E+00
 -1        29 0.00000E+00 0.00000E+00 0.00000E+00
 -1        30 0.00000E+00 0.00000E+00 0.00000E+00
 -1        31 0.00000E+00 0.00000E+00 0.00000E+00
 -1        32 0.00000E+00 0.00000E+00 0.00000E+00
 -1        44-9.03269E-05 9.92891E-04-1.43912E-04
 -1        45-1.99575E-05 7.70293E-04-2.31912E-04
 -1        46 2.45382E-05 5.60707E-04-2.65729E-04
 -1        47-3.36840E-05 2.26894E-04-1.74680E-04
 -1        48 3.36928E-05 2.26898E-04-1.74695E-04
 -1        49-2.45217E-05 5.60715E-04-2.65755E-04
 -1        50 2.00318E-05 7.70287E-04-2.31935E-04
 -1        51 9.03898E-05 9.92887E-04-1.43925E-04
 -1        74 9.44830E-05 9.89089E-04 1.43933E-04
 -1        75 2.23445E-05 7.68014E-04 2.31957E-04
 -1        76-2.59659E-05 5.62144E-04 2.65753E-04
 -1        77 3.30073E-05 2.27562E-04 1.74695E-04
 -1        89-9.43817E-05 9.89165E-04 1.43938E-04
 -1        90-2.22716E-05 7.67998E-04 2.31933E-04
 -1        91 2.59835E-05 5.62153E-04 2.65721E-04
 -1        92-3.29976E-05 2.27557E-04 1.74675E-04
 -1        98 0.00000E+00 0.00000E+00 0.00000E+00
 -1        99 0.00000E+00 0.00000E+00 0.00000E+00
 -1       100 0.00000E+00 0.00000E+00 0.00000E+00
 -1       101 0.00000E+00 0.00000E+00 0.00000E+00
 -1       102 0.00000E+00 0.00000E+00 0.00000E+00
 -1       124 3.05304E-06 9.08498E-04-1.35642E-04
 -1       125 5.48516E-08 1.08922E-03-1.42316E-04
 -1       126-2.96867E-06 9.08489E-04-1.35615E-04
 -1       127 2.41893E-08 8.00448E-04-2.56225E-04
 -1       128-1.95235E-06 5.90145E-04-2.85040E-04
 -1       129 1.87713E-08 5.46918E-04-2.90306E-04
 -1       130 1.97975E-06 5.90143E-04-2.85032E-04
 -1       131 2.19291E-09 2.30882E-04-1.69764E-04
 -1       153 7.60597E-05 1.17867E-03-6.39201E-05
 -1       154 8.93808E-07 1.04186E-03 7.84385E-08
 -1       155-7.74439E-05 1.17877E-03 6.39678E-05
 -1       156-3.61206E-08 8.64990E-04-2.37045E-07
 -1       157-1.51715E-05 4.87491E-04-1.14389E-04
 -1       158 2.71186E-08 4.98041E-04-8.35047E-08
 -1       159 1.55363E-05 4.87704E-04 1.14448E-04
 -1       160 1.21022E-09 1.89537E-04-1.18484E-08
 -1       182 3.14582E-06 9.09858E-04 1.35662E-04
 -1       183 6.84482E-08 1.08790E-03 1.42267E-04
 -1       184-3.03118E-06 9.09889E-04 1.35651E-04
 -1       185 2.73626E-08 8.00748E-04 2.56736E-04
 -1       186-2.18171E-06 5.89844E-04 2.85013E-04
 -1       187 1.65927E-08 5.46775E-04 2.90505E-04
 -1       188 2.20785E-06 5.89850E-04 2.85000E-04
 -1       189 2.19752E-09 2.30844E-04 1.69797E-04
 -1       211 7.75414E-05 1.17880E-03 6.39082E-05
 -1       212-8.00688E-07 1.04184E-03 4.98223E-08
 -1       213-7.59927E-05 1.17865E-03-6.39372E-05
 -1       214 9.54692E-08 8.65004E-04-2.69745E-07
 -1       215-1.55108E-05 4.87702E-04 1.14430E-04
 -1       216 4.86157E-09 4.98030E-04-1.10594E-07
 -1       217 1.51982E-05 4.87491E-04-1.14416E-04
 -1       218 8.92318E-09 1.89539E-04-2.62415E-08
 -1       250 5.03371E-08 1.17556E-03-6.35249E-05
 -1       251-6.10993E-07 7.43816E-04 5.80878E-08
 -1       252 4.12189E-08 9.48567E-04 2.20660E-08
 -1       253 7.00004E-07 7.43829E-04 7.50593E-08
 -1       254 5.57226E-08 1.17437E-03 6.34218E-05
 -1       255 2.82007E-08 8.45563E-04 1.03591E-08
 -1       256 1.66418E-08 4.81647E-04-1.27471E-04
 -1       257 6.79207E-08 5.62108E-04-3.94126E-09
 -1       258 1.47845E-08 4.99595E-04-3.40078E-09
 -1       259-3.81814E-08 5.62112E-04 8.98271E-09
 -1       260 1.59176E-08 4.81708E-04 1.27469E-04
 -1       261 4.36493E-09 2.14328E-04 5.63771E-10
 -3
    1PSTEP                         5           5           1          
  100CL  105 2.50000E-02          81                     1    5           1
 -4  DISP        4    1
 -5  D1          1    2    1    0
 -5  D2          1    2    2    0
 -5  D3          1    2    3    0
 -5  ALL         1    2    0    0    1ALL
 -1         5 0.00000E+00 0.00000E+00 0.00000E+00
 -1         6 0.00000E+00 0.00000E+00 0.00000E+00
 -1         7 0.00000E+00 0.00000E+00 0.00000E+00
 -1         8 0.00000E+00 0.00000E+00 0.00000E+00
 -1        21 0.00000E+00 0.00000E+00 0.00000E+00
 -1        22 0.00000E+00 0.00000E+00 0.00000E+00
 -1        23 0.00000E+00 0.00000E+00 0.00000E+00
 -1        24 0.00000E+00 0.00000E+00 0.00000E+00
 -1        25 0.00000E+00 0.00000E+00 0.00000E+00
 -1        26 0.00000E+00 0.00000E+00 0.00000E+00
 -1        27 0.00000E+00 0.00000E+00 0.00000E+00
 -1        28 0.00000E+00 0.00000E+00 0.00000E+00
 -1        29 0.00000E+00 0.00000E+00 0.00000E+00
 -1        30 0.00000E+00 0.00000E+00 0.00000E+00
 -1        31 0.00000E+00 0.00000E+00 0.00000E+00
 -1        32 0.00000E+00 0.00000E+00 0.00000E+00
 -1        44 6.78739E-05-7.49834E-04 1.08592E-04
 -1        45 1.48482E-05-5.81732E-04 1.75035E-04
 -1        46-1.84662E-05-4.23097E-04 2.00546E-04
 -1        47 2.54768E-05-1.71204E-04 1.31848E-04
 -1        48-2.54869E-05-1.71212E-04 1.31874E-04
 -1        49 1.84466E-05-4.23108E-04 2.00588E-04
 -1        50-1.49575E-05-5.81724E-04 1.75065E-04
 -1        51-6.80199E-05-7.49791E-04 1.08636E-04
 -1        74-7.21453E-05-7.46138E-04-1.08634E-04
 -1        75-1.72615E-05-5.79492E-04-1.75070E-04
 -1        76 1.97446E-05-4.24372E-04-2.00578E-04
 -1        77-2.48093E-05-1.71850E-04-1.31875E-04
 -1        89 7.20087E-05-7.46217E-04-1.08622E-04
 -1        90 1.71456E-05-5.79493E-04-1.75045E-04
 -1        91-1.97609E-05-4.24370E-04-2.00533E-04
 -1        92 2.47979E-05-1.71842E-04-1.31846E-04
 -1        98 0.00000E+00 0.00000E+00 0.00000E+00
 -1        99 0.00000E+00 0.00000E+00 0.00000E+00
 -1       100 0.00000E+00 0.00000E+00 0.00000E+00
 -1       101 0.00000E+00 0.00000E+00 0.00000E+00
 -1       102 0.00000E+00 0.00000E+00 0.00000E+00
 -1       124-1.99445E-06-6.85599E-04 1.02387E-04
 -1       125-9.78465E-08-8.22325E-04 1.07397E-04
 -1       126 1.83502E-06-6.85594E-04 1.02341E-04
 -1       127-3.44486E-08-6.04149E-04 1.93334E-04
 -1       128 1.38565E-06-4.45485E-04 2.15156E-04
 -1       129-2.65394E-08-4.12844E-04 2.19123E-04
 -1       130-1.42437E-06-4.45484E-04 2.15142E-04
 -1       131-1.50034E-09-1.74290E-04 1.28145E-04
 -1       153-5.74017E-05-8.90070E-04 4.82107E-05
 -1       154-9.69430E-07-7.86597E-04-6.94808E-08
 -1       155 5.87821E-05-8.89152E-04-4.82913E-05
 -1       156-1.69430E-08-6.52913E-04 2.27585E-07
 -1       157 1.14410E-05-3.67899E-04 8.63317E-05
 -1       158 3.48585E-08-3.75965E-04 6.84607E-08
 -1       159-1.18242E-05-3.68284E-04-8.64030E-05
 -1       160 3.04710E-09-1.43062E-04 5.85988E-09
 -1       182-3.14470E-06-6.86882E-04-1.02403E-04
 -1       183-1.05209E-07-8.21129E-04-1.07338E-04
 -1       184 2.98194E-06-6.86895E-04-1.02363E-04
 -1       185-3.43889E-08-6.04494E-04-1.93838E-04
 -1       186 1.78559E-06-4.45205E-04-2.15127E-04
 -1       187-2.82216E-08-4.12747E-04-2.19318E-04
 -1       188-1.82437E-06-4.45209E-04-2.15113E-04
 -1       189-1.49542E-09-1.74226E-04-1.28167E-04
 -1       211-5.89111E-05-8.89202E-04-4.82196E-05
 -1       212 8.18377E-07-7.86591E-04-4.64920E-08
 -1       213 5.72706E-05-8.90029E-04 4.82773E-05
 -1       214-5.52275E-08-6.52918E-04 2.76755E-07
 -1       215 1.17863E-05-3.68278E-04-8.63731E-05
 -1       216-8.67789E-08-3.75962E-04 1.08175E-07
 -1       217-1.14808E-05-3.67906E-04 8.63645E-05
 -1       218-1.57708E-08-1.43063E-04 2.21558E-08
 -1       250-7.24588E-08-8.87058E-04 4.79511E-05
 -1       251 1.03834E-07-5.61466E-04-7.63881E-08
 -1       252-3.71923E-08-7.15799E-04-1.30672E-08
 -1       253-2.20811E-07-5.61470E-04-6.94480E-08
 -1       254-7.54389E-08-8.86925E-04-4.78283E-05
 -1       255-4.38953E-08-6.38234E-04-1.45805E-08
 -1       256-1.96496E-08-3.63630E-04 9.62157E-05
 -1       257 8.50230E-09-4.24314E-04 1.04577E-08
 -1       258-1.39282E-08-3.77130E-04 2.69890E-09
 -1       259-4.58141E-08-4.24316E-04-1.36990E-08
 -1       260-2.07205E-08-3.63493E-04-9.62146E-05
 -1       261-7.45953E-09-1.61808E-04-3.07863E-09
 -3
    1PSTEP                         6           6           1          
  100CL  106 3.00000E-02          81                     1    6           1
 -4  DISP        4    1
 -5  D1          1    2    1    0
 -5  D2          1    2    2    0
 -5  D3          1    2    3    0
 -5  ALL         1    2    0    0    1ALL
 -1         5 0.00000E+00 0.00000E+00 0.00000E+00
 -1         6 0.00000E+00 0.00000E+00 0.00000E+00
 -1         7 0.00000E+00 0.00000E+00 0.00000E+00
 -1         8 0.00000E+00 0.00000E+00 0.00000E+00
 -1        21 0.00000E+00 0.00000E+00 0.00000E+00
 -1        22 0.00000E+00 0.00000E+00 0.00000E+00
 -1        23 0.00000E+00 0.00000E+00 0.00000E+00
 -1        24 0.00000E+00 0.00000E+00 0.00000E+00
 -1        25 0.00000E+00 0.00000E+00 0.00000E+00
 -1        26 0.00000E+00 0.00000E+00 0.00000E+00
 -1        27 0.00000E+00 0.00000E+00 0.00000E+00
 -1        28 0.00000E+00 0.00000E+00 0.00000E+00
 -1        29 0.00000E+00 0.00000E+00 0.00000E+00
 -1        30 0.00000E+00 0.00000E+00 0.00000E+00
 -1        31 0.00000E+00 0.00000E+00 0.00000E+00
 -1        32 0.00000E+00 0.00000E+00 0.00000E+00
 -1        44-4.93769E-05 5.43552E-04-7.87514E-05
 -1        45-1.08507E-05 4.21729E-04-1.26926E-04
 -1        46 1.34383E-05 3.06872E-04-1.45425E-04
 -1        47-1.84507E-05 1.24176E-04-9.56093E-05