    1C
    1UUSER                                                              
    1UDATE              15.july.2018                                    
    1UTIME              08:53:39                                        
    1UHOST                                                              
    1UPGM               CalculiX                                        
    1UVERSION           Version 2.13                             
    1UCOMPILETIME       jue jun 14 00:40:39 CEST 2018                    
    1UDIR                                                               
    1UDBN                                                               
    1UMAT    1EL                                                        
    2C                           201                                     1
 -1         1 0.00000E+00 0.00000E+00 0.00000E+00
 -1         2 1.00000E+00 0.00000E+00 0.00000E+00
 -1         3 1.00000E+00 1.00000E+00 0.00000E+00
 -1         4 0.00000E+00 1.00000E+00 0.00000E+00
 -1         9 2.50000E-01 0.00000E+00 0.00000E+00
 -1        10 5.00000E-01 0.00000E+00 0.00000E+00
 -1        11 7.50000E-01 0.00000E+00 0.00000E+00
 -1        12 1.00000E+00 2.50000E-01 0.00000E+00
 -1        13 1.00000E+00 5.00000E-01 0.00000E+00
 -1        14 1.00000E+00 7.50000E-01 0.00000E+00
 -1        15 7.50000E-01 1.00000E+00 0.00000E+00
 -1        16 5.00000E-01 1.00000E+00 0.00000E+00
 -1        17 2.50000E-01 1.00000E+00 0.00000E+00
 -1        18 0.00000E+00 7.50000E-01 0.00000E+00
 -1        19 0.00000E+00 5.00000E-01 0.00000E+00
 -1        20 0.00000E+00 2.50000E-01 0.00000E+00
 -1        33 1.00000E+00 0.00000E+00 5.00000E-01
 -1        34 1.00000E+00 0.00000E+00 1.00000E+00
 -1        35 1.00000E+00 0.00000E+00 1.50000E+00
 -1        36 1.00000E+00 0.00000E+00 2.00000E+00
 -1        37 1.00000E+00 0.00000E+00 2.50000E+00
 -1        38 1.00000E+00 0.00000E+00 3.00000E+00
 -1        39 1.00000E+00 0.00000E+00 3.50000E+00
 -1        40 1.00000E+00 0.00000E+00 4.00000E+00
 -1        41 1.00000E+00 0.00000E+00 4.50000E+00
 -1        42 1.00000E+00 0.00000E+00 5.00000E+00
 -1        43 1.00000E+00 0.00000E+00 5.50000E+00
 -1        44 1.00000E+00 0.00000E+00 6.00000E+00
 -1        51 0.00000E+00 0.00000E+00 6.00000E+00
 -1        52 0.00000E+00 0.00000E+00 5.50000E+00
 -1        53 0.00000E+00 0.00000E+00 5.00000E+00
 -1        54 0.00000E+00 0.00000E+00 4.50000E+00
 -1        55 0.00000E+00 0.00000E+00 4.00000E+00
 -1        56 0.00000E+00 0.00000E+00 3.50000E+00
 -1        57 0.00000E+00 0.00000E+00 3.00000E+00
 -1        58 0.00000E+00 0.00000E+00 2.50000E+00
 -1        59 0.00000E+00 0.00000E+00 2.00000E+00
 -1        60 0.00000E+00 0.00000E+00 1.50000E+00
 -1        61 0.00000E+00 0.00000E+00 1.00000E+00
 -1        62 0.00000E+00 0.00000E+00 5.00000E-01
 -1        63 1.00000E+00 1.00000E+00 5.00000E-01
 -1        64 1.00000E+00 1.00000E+00 1.00000E+00
 -1        65 1.00000E+00 1.00000E+00 1.50000E+00
 -1        66 1.00000E+00 1.00000E+00 2.00000E+00
 -1        67 1.00000E+00 1.00000E+00 2.50000E+00
 -1        68 1.00000E+00 1.00000E+00 3.00000E+00
 -1        69 1.00000E+00 1.00000E+00 3.50000E+00
 -1        70 1.00000E+00 1.00000E+00 4.00000E+00
 -1        71 1.00000E+00 1.00000E+00 4.50000E+00
 -1        72 1.00000E+00 1.00000E+00 5.00000E+00
 -1        73 1.00000E+00 1.00000E+00 5.50000E+00
 -1        74 1.00000E+00 1.00000E+00 6.00000E+00
 -1        78 0.00000E+00 1.00000E+00 5.00000E-01
 -1        79 0.00000E+00 1.00000E+00 1.00000E+00
 -1        80 0.00000E+00 1.00000E+00 1.50000E+00
 -1        81 0.00000E+00 1.00000E+00 2.00000E+00
 -1        82 0.00000E+00 1.00000E+00 2.50000E+00
 -1        83 0.00000E+00 1.00000E+00 3.00000E+00
 -1        84 0.00000E+00 1.00000E+00 3.50000E+00
 -1        85 0.00000E+00 1.00000E+00 4.00000E+00
 -1        86 0.00000E+00 1.00000E+00 4.50000E+00
 -1        87 0.00000E+00 1.00000E+00 5.00000E+00
 -1        88 0.00000E+00 1.00000E+00 5.50000E+00
 -1        89 0.00000E+00 1.00000E+00 6.00000E+00
 -1        93 5.00000E-01 2.50000E-01 0.00000E+00
 -1        94 2.50000E-01 5.00000E-01 0.00000E+00
 -1        95 5.00000E-01 5.00000E-01 0.00000E+00
 -1        96 7.50000E-01 5.00000E-01 0.00000E+00
 -1        97 5.00000E-01 7.50000E-01 0.00000E+00
 -1       103 5.00000E-01 0.00000E+00 5.00000E-01
 -1       104 2.50000E-01 0.00000E+00 1.00000E+00
 -1       105 5.00000E-01 0.00000E+00 1.00000E+00
 -1       106 7.50000E-01 0.00000E+00 1.00000E+00
 -1       107 5.00000E-01 0.00000E+00 1.50000E+00
 -1       108 2.50000E-01 0.00000E+00 2.00000E+00
 -1       109 5.00000E-01 0.00000E+00 2.00000E+00
 -1       110 7.50000E-01 0.00000E+00 2.00000E+00
 -1       111 5.00000E-01 0.00000E+00 2.50000E+00
 -1       112 2.50000E-01 0.00000E+00 3.00000E+00
 -1       113 5.00000E-01 0.00000E+00 3.00000E+00
 -1       114 7.50000E-01 0.00000E+00 3.00000E+00
 -1       115 5.00000E-01 0.00000E+00 3.50000E+00
 -1       116 2.50000E-01 0.00000E+00 4.00000E+00
 -1       117 5.00000E-01 0.00000E+00 4.00000E+00
 -1       118 7.50000E-01 0.00000E+00 4.00000E+00
 -1       119 5.00000E-01 0.00000E+00 4.50000E+00
 -1       120 2.50000E-01 0.00000E+00 5.00000E+00
 -1       121 5.00000E-01 0.00000E+00 5.00000E+00
 -1       122 7.50000E-01 0.00000E+00 5.00000E+00
 -1       123 5.00000E-01 0.00000E+00 5.50000E+00
 -1       124 2.50000E-01 0.00000E+00 6.00000E+00
 -1       125 5.00000E-01 0.00000E+00 6.00000E+00
 -1       126 7.50000E-01 0.00000E+00 6.00000E+00
 -1       132 1.00000E+00 5.00000E-01 5.00000E-01
 -1       133 1.00000E+00 2.50000E-01 1.00000E+00
 -1       134 1.00000E+00 5.00000E-01 1.00000E+00
 -1       135 1.00000E+00 7.50000E-01 1.00000E+00
 -1       136 1.00000E+00 5.00000E-01 1.50000E+00
 -1       137 1.00000E+00 2.50000E-01 2.00000E+00
 -1       138 1.00000E+00 5.00000E-01 2.00000E+00
 -1       139 1.00000E+00 7.50000E-01 2.00000E+00
 -1       140 1.00000E+00 5.00000E-01 2.50000E+00
 -1       141 1.00000E+00 2.50000E-01 3.00000E+00
 -1       142 1.00000E+00 5.00000E-01 3.00000E+00
 -1       143 1.00000E+00 7.50000E-01 3.00000E+00
 -1       144 1.00000E+00 5.00000E-01 3.50000E+00
 -1       145 1.00000E+00 2.50000E-01 4.00000E+00
 -1       146 1.00000E+00 5.00000E-01 4.00000E+00
 -1       147 1.00000E+00 7.50000E-01 4.00000E+00
 -1       148 1.00000E+00 5.00000E-01 4.50000E+00
 -1       149 1.00000E+00 2.50000E-01 5.00000E+00
 -1       150 1.00000E+00 5.00000E-01 5.00000E+00
 -1       151 1.00000E+00 7.50000E-01 5.00000E+00
 -1       152 1.00000E+00 5.00000E-01 5.50000E+00
 -1       153 1.00000E+00 2.50000E-01 6.00000E+00
 -1       154 1.00000E+00 5.00000E-01 6.00000E+00
 -1       155 1.00000E+00 7.50000E-01 6.00000E+00
 -1       161 5.00000E-01 1.00000E+00 5.00000E-01
 -1       162 7.50000E-01 1.00000E+00 1.00000E+00
 -1       163 5.00000E-01 1.00000E+00 1.00000E+00
 -1       164 2.50000E-01 1.00000E+00 1.00000E+00
 -1       165 5.00000E-01 1.00000E+00 1.50000E+00
 -1       166 7.50000E-01 1.00000E+00 2.00000E+00
 -1       167 5.00000E-01 1.00000E+00 2.00000E+00
 -1       168 2.50000E-01 1.00000E+00 2.00000E+00
 -1       169 5.00000E-01 1.00000E+00 2.50000E+00
 -1       170 7.50000E-01 1.00000E+00 3.00000E+00
 -1       171 5.00000E-01 1.00000E+00 3.00000E+00
 -1       172 2.50000E-01 1.00000E+00 3.00000E+00
 -1       173 5.00000E-01 1.00000E+00 3.50000E+00
 -1       174 7.50000E-01 1.00000E+00 4.00000E+00
 -1       175 5.00000E-01 1.00000E+00 4.00000E+00
 -1       176 2.50000E-01 1.00000E+00 4.00000E+00
 -1       177 5.00000E-01 1.00000E+00 4.50000E+00
 -1       178 7.50000E-01 1.00000E+00 5.00000E+00
 -1       179 5.00000E-01 1.00000E+00 5.00000E+00
 -1       180 2.50000E-01 1.00000E+00 5.00000E+00
 -1       181 5.00000E-01 1.00000E+00 5.50000E+00
 -1       182 7.50000E-01 1.00000E+00 6.00000E+00
 -1       183 5.00000E-01 1.00000E+00 6.00000E+00
 -1       184 2.50000E-01 1.00000E+00 6.00000E+00
 -1       190 0.00000E+00 5.00000E-01 5.00000E-01
 -1       191 0.00000E+00 7.50000E-01 1.00000E+00
 -1       192 0.00000E+00 5.00000E-01 1.00000E+00
 -1       193 0.00000E+00 2.50000E-01 1.00000E+00
 -1       194 0.00000E+00 5.00000E-01 1.50000E+00
 -1       195 0.00000E+00 7.50000E-01 2.00000E+00
 -1       196 0.00000E+00 5.00000E-01 2.00000E+00
 -1       197 0.00000E+00 2.50000E-01 2.00000E+00
 -1       198 0.00000E+00 5.00000E-01 2.50000E+00
 -1       199 0.00000E+00 7.50000E-01 3.00000E+00
 -1       200 0.00000E+00 5.00000E-01 3.00000E+00
 -1       201 0.00000E+00 2.50000E-01 3.00000E+00
 -1       202 0.00000E+00 5.00000E-01 3.50000E+00
 -1       203 0.00000E+00 7.50000E-01 4.00000E+00
 -1       204 0.00000E+00 5.00000E-01 4.00000E+00
 -1       205 0.00000E+00 2.50000E-01 4.00000E+00
 -1       206 0.00000E+00 5.00000E-01 4.50000E+00
 -1       207 0.00000E+00 7.50000E-01 5.00000E+00
 -1       208 0.00000E+00 5.00000E-01 5.00000E+00
 -1       209 0.00000E+00 2.50000E-01 5.00000E+00
 -1       210 0.00000E+00 5.00000E-01 5.50000E+00
 -1       211 0.00000E+00 7.50000E-01 6.00000E+00
 -1       212 0.00000E+00 5.00000E-01 6.00000E+00
 -1       213 0.00000E+00 2.50000E-01 6.00000E+00
 -1       219 5.00000E-01 5.00000E-01 5.00000E-01
 -1       220 5.00000E-01 2.50000E-01 1.00000E+00
 -1       221 2.50000E-01 5.00000E-01 1.00000E+00
 -1       222 5.00000E-01 5.00000E-01 1.00000E+00
 -1       223 7.50000E-01 5.00000E-01 1.00000E+00
 -1       224 5.00000E-01 7.50000E-01 1.00000E+00
 -1       225 5.00000E-01 5.00000E-01 1.50000E+00
 -1       226 5.00000E-01 2.50000E-01 2.00000E+00
 -1       227 2.50000E-01 5.00000E-01 2.00000E+00
 -1       228 5.00000E-01 5.00000E-01 2.00000E+00
 -1       229 7.50000E-01 5.00000E-01 2.00000E+00
 -1       230 5.00000E-01 7.50000E-01 2.00000E+00
 -1       231 5.00000E-01 5.00000E-01 2.50000E+00
 -1       232 5.00000E-01 2.50000E-01 3.00000E+00
 -1       233 2.50000E-01 5.00000E-01 3.00000E+00
 -1       234 5.00000E-01 5.00000E-01 3.00000E+00
 -1       235 7.50000E-01 5.00000E-01 3.00000E+00
 -1       236 5.00000E-01 7.50000E-01 3.00000E+00
 -1       237 5.00000E-01 5.00000E-01 3.50000E+00
 -1       238 5.00000E-01 2.50000E-01 4.00000E+00
 -1       239 2.50000E-01 5.00000E-01 4.00000E+00
 -1       240 5.00000E-01 5.00000E-01 4.00000E+00
 -1       241 7.50000E-01 5.00000E-01 4.00000E+00
 -1       242 5.00000E-01 7.50000E-01 4.00000E+00
 -1       243 5.00000E-01 5.00000E-01 4.50000E+00
 -1       244 5.00000E-01 2.50000E-01 5.00000E+00
 -1       245 2.50000E-01 5.00000E-01 5.00000E+00
 -1       246 5.00000E-01 5.00000E-01 5.00000E+00
 -1       247 7.50000E-01 5.00000E-01 5.00000E+00
 -1       248 5.00000E-01 7.50000E-01 5.00000E+00
 -1       249 5.00000E-01 5.00000E-01 5.50000E+00
 -1       250 5.00000E-01 2.50000E-01 6.00000E+00
 -1       251 2.50000E-01 5.00000E-01 6.00000E+00
 -1       252 5.00000E-01 5.00000E-01 6.00000E+00
 -1       253 7.50000E-01 5.00000E-01 6.00000E+00
 -1       254 5.00000E-01 7.50000E-01 6.00000E+00
 -3
    3C                            24                                     1
 -1         1    4    0    1
 -2         1        10        95        19        61       105       222       192         9        93
 -2        94        20        62       103       219       190       104       220       221       193
 -1         2    4    0    1
 -2        10         2        13        95       105        34       134       222        11        12
 -2        96        93       103        33       132       219       106       133       223       220
 -1         3    4    0    1
 -2        19        95        16         4       192       222       163        79        94        97
 -2        17        18       190       219       161        78       221       224       164       191
 -1         4    4    0    1
 -2        95        13         3        16       222       134        64       163        96        14
 -2        15        97       219       132        63       161       223       135       162       224
 -1         5    4    0    1
 -2        61       105       222       192        59       109       228       196       104       220
 -2       221       193        60       107       225       194       108       226       227       197
 -1         6    4    0    1
 -2       105        34       134       222       109        36       138       228       106       133
 -2       223       220       107        35       136       225       110       137       229       226
 -1         7    4    0    1
 -2       192       222       163        79       196       228       167        81       221       224
 -2       164       191       194       225       165        80       227       230       168       195
 -1         8    4    0    1
 -2       222       134        64       163       228       138        66       167       223       135
 -2       162       224       225       136        65       165       229       139       166       230
 -1         9    4    0    1
 -2        59       109       228       196        57       113       234       200       108       226
 -2       227       197        58       111       231       198       112       232       233       201
 -1        10    4    0    1
 -2       109        36       138       228       113        38       142       234       110       137
 -2       229       226       111        37       140       231       114       141       235       232
 -1        11    4    0    1
 -2       196       228       167        81       200       234       171        83       227       230
 -2       168       195       198       231       169        82       233       236       172       199
 -1        12    4    0    1
 -2       228       138        66       167       234       142        68       171       229       139
 -2       166       230       231       140        67       169       235       143       170       236
 -1        13    4    0    1
 -2        57       113       234       200        55       117       240       204       112       232
 -2       233       201        56       115       237       202       116       238       239       205
 -1        14    4    0    1
 -2       113        38       142       234       117        40       146       240       114       141
 -2       235       232       115        39       144       237       118       145       241       238
 -1        15    4    0    1
 -2       200       234       171        83       204       240       175        85       233       236
 -2       172       199       202       237       173        84       239       242       176       203
 -1        16    4    0    1
 -2       234       142        68       171       240       146        70       175       235       143
 -2       170       236       237       144        69       173       241       147       174       242
 -1        17    4    0    1
 -2        55       117       240       204        53       121       246       208       116       238
 -2       239       205        54       119       243       206       120       244       245       209
 -1        18    4    0    1
 -2       117        40       146       240       121        42       150       246       118       145
 -2       241       238       119        41       148       243       122       149       247       244
 -1        19    4    0    1
 -2       204       240       175        85       208       246       179        87       239       242
 -2       176       203       206       243       177        86       245       248       180       207
 -1        20    4    0    1
 -2       240       146        70       175       246       150        72       179       241       147
 -2       174       242       243       148        71       177       247       151       178       248
 -1        21    4    0    1
 -2        53       121       246       208        51       125       252       212       120       244
 -2       245       209        52       123       249       210       124       250       251       213
 -1        22    4    0    1
 -2       121        42       150       246       125        44       154       252       122       149
 -2       247       244       123        43       152       249       126       153       253       250
 -1        23    4    0    1
 -2       208       246       179        87       212       252       183        89       245       248
 -2       180       207       210       249       181        88       251       254       184       211
 -1        24    4    0    1
 -2       246       150        72       179       252       154        74       183       247       151
 -2       178       248       249       152        73       181       253       155       182       254
 -3
    1PSTEP                         1           1           1          
  100CL  101 5.00000E-03         201                     1    1           1
 -4  DISP        4    1
 -5  D1          1    2    1    0
 -5  D2          1    2    2    0
 -5  D3          1    2    3    0
 -5  ALL         1    2    0    0    1ALL
 -1         1 0.00000E+00 0.00000E+00 0.00000E+00
 -1         2 0.00000E+00 0.00000E+00 0.00000E+00
 -1         3 0.00000E+00 0.00000E+00 0.00000E+00
 -1         4 0.00000E+00 0.00000E+00 0.00000E+00
 -1         9 0.00000E+00 0.00000E+00 0.00000E+00
 -1        10 0.00000E+00 0.00000E+00 0.00000E+00
 -1        11 0.00000E+00 0.00000E+00 0.00000E+00
 -1        12 0.00000E+00 0.00000E+00 0.00000E+00
 -1        13 0.00000E+00 0.00000E+00 0.00000E+00
 -1        14 0.00000E+00 0.00000E+00 0.00000E+00
 -1        15 0.00000E+00 0.00000E+00 0.00000E+00
 -1        16 0.00000E+00 0.00000E+00 0.00000E+00
 -1        17 0.00000E+00 0.00000E+00 0.00000E+00
 -1        18 0.00000E+00 0.00000E+00 0.00000E+00
 -1        19 0.00000E+00 0.00000E+00 0.00000E+00
 -1        20 0.00000E+00 0.00000E+00 0.00000E+00
 -1        33 6.38368E-05-1.55653E-04-2.04533E-04
 -1        34 3.13687E-05-4.82073E-04-3.74482E-04
 -1        35 2.57817E-05-9.70931E-04-4.83995E-04
 -1        36 8.20025E-06-1.52897E-03-5.41101E-04
 -1        37-5.10751E-06-2.11220E-03-5.47924E-04
 -1        38-2.08818E-05-2.69602E-03-5.19548E-04
 -1        39-4.25595E-05-3.19608E-03-3.84642E-04
 -1        40-4.35494E-05-3.54591E-03-2.09831E-04
 -1        41-4.37938E-05-3.58113E-03-6.38117E-05
 -1        42-6.01165E-05-3.74414E-03-1.50503E-04
 -1        43 6.30334E-05-3.47123E-03 8.70217E-05
 -1        44-6.61632E-05-3.46603E-03 4.49192E-04
 -1        51 6.64864E-05-3.46615E-03 4.49088E-04
 -1        52-6.27578E-05-3.47130E-03 8.69789E-05
 -1        53 6.03263E-05-3.74411E-03-1.50546E-04
 -1        54 4.40206E-05-3.58114E-03-6.38101E-05
 -1        55 4.37775E-05-3.54591E-03-2.09805E-04
 -1        56 4.27648E-05-3.19609E-03-3.84617E-04
 -1        57 2.10475E-05-2.69601E-03-5.19518E-04
 -1        58 5.23981E-06-2.11220E-03-5.47891E-04
 -1        59-8.10549E-06-1.52897E-03-5.41066E-04
 -1        60-2.57208E-05-9.70931E-04-4.83966E-04
 -1        61-3.13391E-05-4.82070E-04-3.74459E-04
 -1        62-6.38271E-05-1.55650E-04-2.04520E-04
 -1        63-6.26603E-05-1.53921E-04 2.01098E-04
 -1        64-3.11830E-05-4.81517E-04 3.67119E-04
 -1        65-2.33581E-05-9.70479E-04 4.73680E-04
 -1        66-7.85068E-06-1.53545E-03 5.27372E-04
 -1        67 4.95371E-06-2.10240E-03 5.31012E-04
 -1        68 1.43799E-05-2.69651E-03 4.94450E-04
 -1        69 5.93614E-05-3.20709E-03 3.58055E-04
 -1        70 6.76039E-05-3.63739E-03 1.84679E-04
 -1        71-8.18564E-06-3.45744E-03 3.32247E-05
 -1        72-1.09201E-04-3.47938E-03 8.18803E-05
 -1        73 2.12241E-04-3.89449E-03-1.69453E-04
 -1        74 3.46603E-04-4.42373E-03-4.95253E-04
 -1        78 6.26701E-05-1.53926E-04 2.01111E-04
 -1        79 3.12095E-05-4.81519E-04 3.67141E-04
 -1        80 2.34192E-05-9.70482E-04 4.73711E-04
 -1        81 7.93699E-06-1.53544E-03 5.27405E-04
 -1        82-4.81858E-06-2.10240E-03 5.31046E-04
 -1        83-1.42323E-05-2.69650E-03 4.94471E-04
 -1        84-5.91505E-05-3.20709E-03 3.58089E-04
 -1        85-6.74193E-05-3.63736E-03 1.84708E-04
 -1        86 8.44427E-06-3.45747E-03 3.32131E-05
 -1        87 1.09319E-04-3.47934E-03 8.17325E-05
 -1        88-2.11938E-04-3.89445E-03-1.69373E-04
 -1        89-3.46464E-04-4.42344E-03-4.95143E-04
 -1        93 0.00000E+00 0.00000E+00 0.00000E+00
 -1        94 0.00000E+00 0.00000E+00 0.00000E+00
 -1        95 0.00000E+00 0.00000E+00 0.00000E+00
 -1        96 0.00000E+00 0.00000E+00 0.00000E+00
 -1        97 0.00000E+00 0.00000E+00 0.00000E+00
 -1       103 3.66343E-09-1.81970E-04-2.00745E-04
 -1       104-1.56189E-05-5.01425E-04-3.80350E-04
 -1       105 1.49563E-08-5.03874E-04-3.82986E-04
 -1       106 1.56482E-05-5.01426E-04-3.80361E-04
 -1       107 2.95806E-08-9.81146E-04-4.86740E-04
 -1       108-3.26395E-06-1.53093E-03-5.44764E-04
 -1       109 4.80032E-08-1.54134E-03-5.43623E-04
 -1       110 3.35908E-06-1.53093E-03-5.44781E-04
 -1       111 6.59341E-08-2.10370E-03-5.51721E-04
 -1       112 7.56321E-06-2.71964E-03-5.21444E-04
 -1       113 8.54597E-08-2.71239E-03-5.22982E-04
 -1       114-7.39393E-06-2.71964E-03-5.21458E-04
 -1       115 1.01189E-07-3.15850E-03-3.93495E-04
 -1       116 3.31976E-05-3.52107E-03-2.04008E-04
 -1       117 1.16074E-07-3.64228E-03-1.82423E-04
 -1       118-3.29703E-05-3.52107E-03-2.04021E-04
 -1       119 1.15866E-07-3.55625E-03-6.60018E-05
 -1       120-6.43643E-06-3.91432E-03-1.13340E-04
 -1       121 1.23676E-07-3.76733E-03-1.17637E-04
 -1       122 6.67818E-06-3.91432E-03-1.13320E-04
 -1       123 1.21720E-07-3.48468E-03-2.82098E-05
 -1       124 1.46885E-04-2.96735E-03 4.29652E-04
 -1       125 1.58912E-07-3.59123E-03 4.48327E-04
 -1       126-1.46609E-04-2.96738E-03 4.29720E-04
 -1       132 7.19278E-07-1.18708E-04-1.59599E-06
 -1       133 1.61499E-05-4.69719E-04-1.78045E-04
 -1       134 8.96388E-07-4.74339E-04-2.87022E-06
 -1       135-1.53788E-05-4.69816E-04 1.71227E-04
 -1       136-1.29925E-07-9.53532E-04-5.57755E-06
 -1       137 4.89745E-06-1.52678E-03-2.68692E-04
 -1       138 5.88510E-07-1.51871E-03-7.36473E-06
 -1       139-3.68779E-06-1.52852E-03 2.55285E-04
 -1       140 1.74536E-06-2.12672E-03-9.14533E-06
 -1       141-1.04857E-05-2.68086E-03-2.44416E-04
 -1       142 5.47640E-06-2.68671E-03-5.02687E-06
 -1       143 1.16005E-05-2.68682E-03 2.24289E-04
 -1       144-8.70950E-06-3.22104E-03-1.26800E-05
 -1       145-1.97721E-05-3.56287E-03-1.32366E-04
 -1       146-1.24487E-05-3.46417E-03-2.49534E-05
 -1       147 1.73599E-05-3.58801E-03 1.01179E-04
 -1       148 2.69445E-05-3.68421E-03-2.36730E-05
 -1       149-3.52524E-05-3.42227E-03-4.74121E-05
 -1       150 8.30390E-05-3.44485E-03-1.44464E-06
 -1       151 3.29801E-05-3.34998E-03 6.97014E-07
 -1       152-1.25327E-04-3.72599E-03 1.25669E-05
 -1       153 7.77310E-05-3.62012E-03 1.91187E-04
 -1       154-1.13637E-04-2.47712E-03-2.05164E-05
 -1       155-8.14531E-05-3.89357E-03-2.37766E-04
 -1       161 3.29643E-09-1.80775E-04 1.97025E-04
 -1       162-1.53790E-05-5.00783E-04 3.73637E-04
 -1       163 1.55156E-08-5.01431E-04 3.75788E-04
 -1       164 1.54073E-05-5.00783E-04 3.73647E-04
 -1       165 2.81155E-08-9.81185E-04 4.76735E-04
 -1       166-3.84739E-06-1.52830E-03 5.30714E-04
 -1       167 4.98545E-08-1.53727E-03 5.32920E-04
 -1       168 3.94036E-06-1.52830E-03 5.30729E-04
 -1       169 6.27539E-08-2.10465E-03 5.31029E-04
 -1       170 7.31845E-06-2.71954E-03 5.01498E-04
 -1       171 9.13769E-08-2.68115E-03 4.96856E-04
 -1       172-7.15296E-06-2.71953E-03 5.01511E-04
 -1       173 9.48058E-08-3.17881E-03 3.69248E-04
 -1       174 3.28932E-05-3.46269E-03 1.71076E-04
 -1       175 1.30401E-07-3.56135E-03 1.72411E-04
 -1       176-3.26714E-05-3.46268E-03 1.71080E-04
 -1       177 1.01137E-07-3.51437E-03 2.12736E-05
 -1       178-4.91701E-05-4.01166E-03 7.20512E-05
 -1       179 1.66932E-07-3.58197E-03 4.67812E-05
 -1       180 4.94052E-05-4.01160E-03 7.20229E-05
 -1       181 9.46582E-08-3.68063E-03-5.97565E-05
 -1       182 1.37043E-04-2.56158E-03-4.71175E-04
 -1       183 2.76771E-07-4.35477E-03-4.76758E-04
 -1       184-1.36738E-04-2.56154E-03-4.71317E-04
 -1       190-7.08309E-07-1.18708E-04-1.58390E-06
 -1       191 1.54085E-05-4.69817E-04 1.71250E-04
 -1       192-8.64447E-07-4.74340E-04-2.84669E-06
 -1       193-1.61186E-05-4.69719E-04-1.78022E-04
 -1       194 1.89433E-07-9.53532E-04-5.54742E-06
 -1       195 3.77980E-06-1.52852E-03 2.55317E-04
 -1       196-4.90815E-07-1.51872E-03-7.33010E-06
 -1       197-4.80146E-06-1.52678E-03-2.68658E-04
 -1       198-1.61615E-06-2.12672E-03-9.11248E-06
 -1       199-1.14390E-05-2.68682E-03 2.24321E-04
 -1       200-5.30145E-06-2.68671E-03-4.99498E-06
 -1       201 1.06571E-05-2.68087E-03-2.44382E-04
 -1       202 8.90170E-06-3.22103E-03-1.26515E-05
 -1       203-1.71513E-05-3.58800E-03 1.01186E-04
 -1       204 1.26867E-05-3.46418E-03-2.49319E-05
 -1       205 1.99996E-05-3.56289E-03-1.32351E-04
 -1       206-2.67225E-05-3.68420E-03-2.36821E-05
 -1       207-3.27730E-05-3.35000E-03 6.93635E-07
 -1       208-8.27657E-05-3.44490E-03-1.44725E-06
 -1       209 3.55130E-05-3.42226E-03-4.74052E-05
 -1       210 1.25516E-04-3.72597E-03 1.25762E-05
 -1       211 8.15691E-05-3.89341E-03-2.37916E-04
 -1       212 1.13850E-04-2.47723E-03-2.03992E-05
 -1       213-7.75437E-05-3.62031E-03 1.91103E-04
 -1       219 4.54624E-09-1.44463E-04-1.42386E-06
 -1       220 1.50169E-08-4.89536E-04-1.83669E-04
 -1       221-4.02154E-07-4.91058E-04-3.61884E-06
 -1       222 1.47014E-08-4.92538E-04-3.78803E-06
 -1       223 4.32298E-07-4.91058E-04-3.63003E-06
 -1       224 1.52909E-08-4.88180E-04 1.76738E-04
 -1       225 2.99755E-08-9.65578E-04-5.10718E-06
 -1       226 4.69875E-08-1.53435E-03-2.72909E-04
 -1       227-2.98621E-07-1.52018E-03-6.82480E-06
 -1       228 4.56555E-08-1.52226E-03-8.41540E-06
 -1       229 3.93201E-07-1.52018E-03-6.84194E-06
 -1       230 4.79519E-08-1.53264E-03 2.57743E-04
 -1       231 6.72033E-08-2.12499E-03-7.45114E-06
 -1       232 8.26292E-08-2.68879E-03-2.49326E-04
 -1       233-2.20130E-06-2.68450E-03-1.26811E-05
 -1       234 8.08408E-08-2.68224E-03-1.39560E-05
 -1       235 2.36936E-06-2.68449E-03-1.26955E-05
 -1       236 8.54040E-08-2.67189E-03 2.27218E-04
 -1       237 1.00381E-07-3.19258E-03-9.29297E-06
 -1       238 1.09528E-07-3.61290E-03-1.23805E-04
 -1       239 6.25146E-06-3.45397E-03-1.42539E-05
 -1       240 1.00597E-07-3.47953E-03-1.99369E-05
 -1       241-6.03005E-06-3.45396E-03-1.42687E-05
 -1       242 1.17273E-07-3.57443E-03 8.80602E-05
 -1       243 1.29368E-07-3.65601E-03-2.12401E-05
 -1       244 1.06946E-07-3.52253E-03-2.00196E-05
 -1       245-3.49629E-05-3.61165E-03-2.63401E-05
 -1       246 9.99758E-08-3.65789E-03-1.97599E-05
 -1       247 3.51945E-05-3.61163E-03-2.63196E-05
 -1       248 1.26902E-07-3.44329E-03-1.00811E-05
 -1       249 1.03918E-07-3.52040E-03-1.34262E-05
 -1       250 7.20697E-08-4.10113E-03 1.73901E-04
 -1       251 3.75374E-05-2.57210E-03-9.42897E-06
 -1       252-4.43495E-08-3.14069E-03-1.56944E-05
 -1       253-3.74547E-05-2.57204E-03-9.56976E-06
 -1       254 1.36272E-07-4.41228E-03-2.55261E-04
 -3
    1PSTEP                         2           2           1          
  100CL  102 1.00000E-02         201                     1    2           1
 -4  DISP        4    1
 -5  D1          1    2    1    0
 -5  D2          1    2    2    0
 -5  D3          1    2    3    0
 -5  ALL         1    2    0    0    1ALL
 -1         1 0.00000E+00 0.00000E+00 0.00000E+00
 -1         2 0.00000E+00 0.00000E+00 0.00000E+00
 -1         3 0.00000E+00 0.00000E+00 0.00000E+00
 -1         4 0.00000E+00 0.00000E+00 0.00000E+00
 -1         9 0.00000E+00 0.00000E+00 0.00000E+00
 -1        10 0.00000E+00 0.00000E+00 0.00000E+00
 -1        11 0.00000E+00 0.00000E+00 0.00000E+00
 -1        12 0.00000E+00 0.00000E+00 0.00000E+00
 -1        13 0.00000E+00 0.00000E+00 0.00000E+00
 -1        14 0.00000E+00 0.00000E+00 0.00000E+00
 -1        15 0.00000E+00 0.00000E+00 0.00000E+00
 -1        16 0.00000E+00 0.00000E+00 0.00000E+00
 -1        17 0.00000E+00 0.00000E+00 0.00000E+00
 -1        18 0.00000E+00 0.00000E+00 0.00000E+00
 -1        19 0.00000E+00 0.00000E+00 0.00000E+00
 -1        20 0.00000E+00 0.00000E+00 0.00000E+00
 -1        33-3.20026E-05 7.91823E-05 1.03022E-04
 -1        34-1.54933E-05 2.44841E-04 1.87767E-04
 -1        35-1.27563E-05 4.92635E-04 2.42765E-04
 -1        36-4.51789E-06 7.74438E-04 2.70103E-04
 -1        37 4.27540E-06 1.07195E-03 2.71893E-04
 -1        38 1.34493E-05 1.36772E-03 2.50350E-04
 -1        39 2.07761E-05 1.60915E-03 1.85261E-04
 -1        40 1.40966E-05 1.78378E-03 9.24674E-05
 -1        41 3.48347E-05 1.81729E-03 2.07437E-05
 -1        42 4.41833E-05 1.87114E-03 1.11476E-05
 -1        43-3.81712E-05 1.69878E-03-7.83398E-05
 -1        44-1.50987E-04 1.60945E-03-2.33937E-04
 -1        51 1.51013E-04 1.60941E-03-2.33934E-04
 -1        52 3.81579E-05 1.69877E-03-7.83318E-05
 -1        53-4.42044E-05 1.87113E-03 1.11510E-05
 -1        54-3.48678E-05 1.81729E-03 2.07454E-05
 -1        55-1.41260E-05 1.78377E-03 9.24679E-05
 -1        56-2.08052E-05 1.60914E-03 1.85258E-04
 -1        57-1.34740E-05 1.36772E-03 2.50345E-04
 -1        58-4.29596E-06 1.07195E-03 2.71888E-04
 -1        59 4.50345E-06 7.74436E-04 2.70097E-04
 -1        60 1.27470E-05 4.92633E-04 2.42760E-04
 -1        61 1.54890E-05 2.44840E-04 1.87763E-04
 -1        62 3.20012E-05 7.91811E-05 1.03020E-04
 -1        63 3.19936E-05 7.91718E-05-1.02999E-04
 -1        64 1.54861E-05 2.44838E-04-1.87718E-04
 -1        65 1.27329E-05 4.92630E-04-2.42697E-04
 -1        66 4.49888E-06 7.74467E-04-2.70013E-04
 -1        67-4.29941E-06 1.07191E-03-2.71784E-04
 -1        68-1.34480E-05 1.36773E-03-2.50196E-04
 -1        69-2.08867E-05 1.60919E-03-1.85098E-04
 -1        70-1.42462E-05 1.78421E-03-9.23144E-05
 -1        71-3.46299E-05 1.81672E-03-2.05554E-05
 -1        72-4.34033E-05 1.86989E-03-1.07523E-05
 -1        73 3.68478E-05 1.70075E-03 7.87783E-05
 -1        74 1.49739E-04 1.61380E-03 2.34221E-04
 -1        78-3.19958E-05 7.91720E-05-1.03001E-04