    1C
    1UUSER                                                              
    1UDATE              15.july.2018                                    
    1UTIME              17:34:21                                        
    1UHOST                                                              
    1UPGM               CalculiX                                        
    1UVERSION           Version 2.13                             
    1UCOMPILETIME       jue jun 14 00:40:39 CEST 2018                    
    1UDIR                                                               
    1UDBN                                                               
    1UMAT    1EL                                                        
    2C                           201                                     1
 -1         1 0.00000E+00 0.00000E+00 0.00000E+00
 -1         2 1.00000E+00 0.00000E+00 0.00000E+00
 -1         3 1.00000E+00 1.00000E+00 0.00000E+00
 -1         4 0.00000E+00 1.00000E+00 0.00000E+00
 -1         9 2.50000E-01 0.00000E+00 0.00000E+00
 -1        10 5.00000E-01 0.00000E+00 0.00000E+00
 -1        11 7.50000E-01 0.00000E+00 0.00000E+00
 -1        12 1.00000E+00 2.50000E-01 0.00000E+00
 -1        13 1.00000E+00 5.00000E-01 0.00000E+00
 -1        14 1.00000E+00 7.50000E-01 0.00000E+00
 -1        15 7.50000E-01 1.00000E+00 0.00000E+00
 -1        16 5.00000E-01 1.00000E+00 0.00000E+00
 -1        17 2.50000E-01 1.00000E+00 0.00000E+00
 -1        18 0.00000E+00 7.50000E-01 0.00000E+00
 -1        19 0.00000E+00 5.00000E-01 0.00000E+00
 -1        20 0.00000E+00 2.50000E-01 0.00000E+00
 -1        33 1.00000E+00 0.00000E+00 5.00000E-01
 -1        34 1.00000E+00 0.00000E+00 1.00000E+00
 -1        35 1.00000E+00 0.00000E+00 1.50000E+00
 -1        36 1.00000E+00 0.00000E+00 2.00000E+00
 -1        37 1.00000E+00 0.00000E+00 2.50000E+00
 -1        38 1.00000E+00 0.00000E+00 3.00000E+00
 -1        39 1.00000E+00 0.00000E+00 3.50000E+00
 -1        40 1.00000E+00 0.00000E+00 4.00000E+00
 -1        41 1.00000E+00 0.00000E+00 4.50000E+00
 -1        42 1.00000E+00 0.00000E+00 5.00000E+00
 -1        43 1.00000E+00 0.00000E+00 5.50000E+00
 -1        44 1.00000E+00 0.00000E+00 6.00000E+00
 -1        51 0.00000E+00 0.00000E+00 6.00000E+00
 -1        52 0.00000E+00 0.00000E+00 5.50000E+00
 -1        53 0.00000E+00 0.00000E+00 5.00000E+00
 -1        54 0.00000E+00 0.00000E+00 4.50000E+00
 -1        55 0.00000E+00 0.00000E+00 4.00000E+00
 -1        56 0.00000E+00 0.00000E+00 3.50000E+00
 -1        57 0.00000E+00 0.00000E+00 3.00000E+00
 -1        58 0.00000E+00 0.00000E+00 2.50000E+00
 -1        59 0.00000E+00 0.00000E+00 2.00000E+00
 -1        60 0.00000E+00 0.00000E+00 1.50000E+00
 -1        61 0.00000E+00 0.00000E+00 1.00000E+00
 -1        62 0.00000E+00 0.00000E+00 5.00000E-01
 -1        63 1.00000E+00 1.00000E+00 5.00000E-01
 -1        64 1.00000E+00 1.00000E+00 1.00000E+00
 -1        65 1.00000E+00 1.00000E+00 1.50000E+00
 -1        66 1.00000E+00 1.00000E+00 2.00000E+00
 -1        67 1.00000E+00 1.00000E+00 2.50000E+00
 -1        68 1.00000E+00 1.00000E+00 3.00000E+00
 -1        69 1.00000E+00 1.00000E+00 3.50000E+00
 -1        70 1.00000E+00 1.00000E+00 4.00000E+00
 -1        71 1.00000E+00 1.00000E+00 4.50000E+00
 -1        72 1.00000E+00 1.00000E+00 5.00000E+00
 -1        73 1.00000E+00 1.00000E+00 5.50000E+00
 -1        74 1.00000E+00 1.00000E+00 6.00000E+00
 -1        78 0.00000E+00 1.00000E+00 5.00000E-01
 -1        79 0.00000E+00 1.00000E+00 1.00000E+00
 -1        80 0.00000E+00 1.00000E+00 1.50000E+00
 -1        81 0.00000E+00 1.00000E+00 2.00000E+00
 -1        82 0.00000E+00 1.00000E+00 2.50000E+00
 -1        83 0.00000E+00 1.00000E+00 3.00000E+00
 -1        84 0.00000E+00 1.00000E+00 3.50000E+00
 -1        85 0.00000E+00 1.00000E+00 4.00000E+00
 -1        86 0.00000E+00 1.00000E+00 4.50000E+00
 -1        87 0.00000E+00 1.00000E+00 5.00000E+00
 -1        88 0.00000E+00 1.00000E+00 5.50000E+00
 -1        89 0.00000E+00 1.00000E+00 6.00000E+00
 -1        93 5.00000E-01 2.50000E-01 0.00000E+00
 -1        94 2.50000E-01 5.00000E-01 0.00000E+00
 -1        95 5.00000E-01 5.00000E-01 0.00000E+00
 -1        96 7.50000E-01 5.00000E-01 0.00000E+00
 -1        97 5.00000E-01 7.50000E-01 0.00000E+00
 -1       103 5.00000E-01 0.00000E+00 5.00000E-01
 -1       104 2.50000E-01 0.00000E+00 1.00000E+00
 -1       105 5.00000E-01 0.00000E+00 1.00000E+00
 -1       106 7.50000E-01 0.00000E+00 1.00000E+00
 -1       107 5.00000E-01 0.00000E+00 1.50000E+00
 -1       108 2.50000E-01 0.00000E+00 2.00000E+00
 -1       109 5.00000E-01 0.00000E+00 2.00000E+00
 -1       110 7.50000E-01 0.00000E+00 2.00000E+00
 -1       111 5.00000E-01 0.00000E+00 2.50000E+00
 -1       112 2.50000E-01 0.00000E+00 3.00000E+00
 -1       113 5.00000E-01 0.00000E+00 3.00000E+00
 -1       114 7.50000E-01 0.00000E+00 3.00000E+00
 -1       115 5.00000E-01 0.00000E+00 3.50000E+00
 -1       116 2.50000E-01 0.00000E+00 4.00000E+00
 -1       117 5.00000E-01 0.00000E+00 4.00000E+00
 -1       118 7.50000E-01 0.00000E+00 4.00000E+00
 -1       119 5.00000E-01 0.00000E+00 4.50000E+00
 -1       120 2.50000E-01 0.00000E+00 5.00000E+00
 -1       121 5.00000E-01 0.00000E+00 5.00000E+00
 -1       122 7.50000E-01 0.00000E+00 5.00000E+00
 -1       123 5.00000E-01 0.00000E+00 5.50000E+00
 -1       124 2.50000E-01 0.00000E+00 6.00000E+00
 -1       125 5.00000E-01 0.00000E+00 6.00000E+00
 -1       126 7.50000E-01 0.00000E+00 6.00000E+00
 -1       132 1.00000E+00 5.00000E-01 5.00000E-01
 -1       133 1.00000E+00 2.50000E-01 1.00000E+00
 -1       134 1.00000E+00 5.00000E-01 1.00000E+00
 -1       135 1.00000E+00 7.50000E-01 1.00000E+00
 -1       136 1.00000E+00 5.00000E-01 1.50000E+00
 -1       137 1.00000E+00 2.50000E-01 2.00000E+00
 -1       138 1.00000E+00 5.00000E-01 2.00000E+00
 -1       139 1.00000E+00 7.50000E-01 2.00000E+00
 -1       140 1.00000E+00 5.00000E-01 2.50000E+00
 -1       141 1.00000E+00 2.50000E-01 3.00000E+00
 -1       142 1.00000E+00 5.00000E-01 3.00000E+00
 -1       143 1.00000E+00 7.50000E-01 3.00000E+00
 -1       144 1.00000E+00 5.00000E-01 3.50000E+00
 -1       145 1.00000E+00 2.50000E-01 4.00000E+00
 -1       146 1.00000E+00 5.00000E-01 4.00000E+00
 -1       147 1.00000E+00 7.50000E-01 4.00000E+00
 -1       148 1.00000E+00 5.00000E-01 4.50000E+00
 -1       149 1.00000E+00 2.50000E-01 5.00000E+00
 -1       150 1.00000E+00 5.00000E-01 5.00000E+00
 -1       151 1.00000E+00 7.50000E-01 5.00000E+00
 -1       152 1.00000E+00 5.00000E-01 5.50000E+00
 -1       153 1.00000E+00 2.50000E-01 6.00000E+00
 -1       154 1.00000E+00 5.00000E-01 6.00000E+00
 -1       155 1.00000E+00 7.50000E-01 6.00000E+00
 -1       161 5.00000E-01 1.00000E+00 5.00000E-01
 -1       162 7.50000E-01 1.00000E+00 1.00000E+00
 -1       163 5.00000E-01 1.00000E+00 1.00000E+00
 -1       164 2.50000E-01 1.00000E+00 1.00000E+00
 -1       165 5.00000E-01 1.00000E+00 1.50000E+00
 -1       166 7.50000E-01 1.00000E+00 2.00000E+00
 -1       167 5.00000E-01 1.00000E+00 2.00000E+00
 -1       168 2.50000E-01 1.00000E+00 2.00000E+00
 -1       169 5.00000E-01 1.00000E+00 2.50000E+00
 -1       170 7.50000E-01 1.00000E+00 3.00000E+00
 -1       171 5.00000E-01 1.00000E+00 3.00000E+00
 -1       172 2.50000E-01 1.00000E+00 3.00000E+00
 -1       173 5.00000E-01 1.00000E+00 3.50000E+00
 -1       174 7.50000E-01 1.00000E+00 4.00000E+00
 -1       175 5.00000E-01 1.00000E+00 4.00000E+00
 -1       176 2.50000E-01 1.00000E+00 4.00000E+00
 -1       177 5.00000E-01 1.00000E+00 4.50000E+00
 -1       178 7.50000E-01 1.00000E+00 5.00000E+00
 -1       179 5.00000E-01 1.00000E+00 5.00000E+00
 -1       180 2.50000E-01 1.00000E+00 5.00000E+00
 -1       181 5.00000E-01 1.00000E+00 5.50000E+00
 -1       182 7.50000E-01 1.00000E+00 6.00000E+00
 -1       183 5.00000E-01 1.00000E+00 6.00000E+00
 -1       184 2.50000E-01 1.00000E+00 6.00000E+00
 -1       190 0.00000E+00 5.00000E-01 5.00000E-01
 -1       191 0.00000E+00 7.50000E-01 1.00000E+00
 -1       192 0.00000E+00 5.00000E-01 1.00000E+00
 -1       193 0.00000E+00 2.50000E-01 1.00000E+00
 -1       194 0.00000E+00 5.00000E-01 1.50000E+00
 -1       195 0.00000E+00 7.50000E-01 2.00000E+00
 -1       196 0.00000E+00 5.00000E-01 2.00000E+00
 -1       197 0.00000E+00 2.50000E-01 2.00000E+00
 -1       198 0.00000E+00 5.00000E-01 2.50000E+00
 -1       199 0.00000E+00 7.50000E-01 3.00000E+00
 -1       200 0.00000E+00 5.00000E-01 3.00000E+00
 -1       201 0.00000E+00 2.50000E-01 3.00000E+00
 -1       202 0.00000E+00 5.00000E-01 3.50000E+00
 -1       203 0.00000E+00 7.50000E-01 4.00000E+00
 -1       204 0.00000E+00 5.00000E-01 4.00000E+00
 -1       205 0.00000E+00 2.50000E-01 4.00000E+00
 -1       206 0.00000E+00 5.00000E-01 4.50000E+00
 -1       207 0.00000E+00 7.50000E-01 5.00000E+00
 -1       208 0.00000E+00 5.00000E-01 5.00000E+00
 -1       209 0.00000E+00 2.50000E-01 5.00000E+00
 -1       210 0.00000E+00 5.00000E-01 5.50000E+00
 -1       211 0.00000E+00 7.50000E-01 6.00000E+00
 -1       212 0.00000E+00 5.00000E-01 6.00000E+00
 -1       213 0.00000E+00 2.50000E-01 6.00000E+00
 -1       219 5.00000E-01 5.00000E-01 5.00000E-01
 -1       220 5.00000E-01 2.50000E-01 1.00000E+00
 -1       221 2.50000E-01 5.00000E-01 1.00000E+00
 -1       222 5.00000E-01 5.00000E-01 1.00000E+00
 -1       223 7.50000E-01 5.00000E-01 1.00000E+00
 -1       224 5.00000E-01 7.50000E-01 1.00000E+00
 -1       225 5.00000E-01 5.00000E-01 1.50000E+00
 -1       226 5.00000E-01 2.50000E-01 2.00000E+00
 -1       227 2.50000E-01 5.00000E-01 2.00000E+00
 -1       228 5.00000E-01 5.00000E-01 2.00000E+00
 -1       229 7.50000E-01 5.00000E-01 2.00000E+00
 -1       230 5.00000E-01 7.50000E-01 2.00000E+00
 -1       231 5.00000E-01 5.00000E-01 2.50000E+00
 -1       232 5.00000E-01 2.50000E-01 3.00000E+00
 -1       233 2.50000E-01 5.00000E-01 3.00000E+00
 -1       234 5.00000E-01 5.00000E-01 3.00000E+00
 -1       235 7.50000E-01 5.00000E-01 3.00000E+00
 -1       236 5.00000E-01 7.50000E-01 3.00000E+00
 -1       237 5.00000E-01 5.00000E-01 3.50000E+00
 -1       238 5.00000E-01 2.50000E-01 4.00000E+00
 -1       239 2.50000E-01 5.00000E-01 4.00000E+00
 -1       240 5.00000E-01 5.00000E-01 4.00000E+00
 -1       241 7.50000E-01 5.00000E-01 4.00000E+00
 -1       242 5.00000E-01 7.50000E-01 4.00000E+00
 -1       243 5.00000E-01 5.00000E-01 4.50000E+00
 -1       244 5.00000E-01 2.50000E-01 5.00000E+00
 -1       245 2.50000E-01 5.00000E-01 5.00000E+00
 -1       246 5.00000E-01 5.00000E-01 5.00000E+00
 -1       247 7.50000E-01 5.00000E-01 5.00000E+00
 -1       248 5.00000E-01 7.50000E-01 5.00000E+00
 -1       249 5.00000E-01 5.00000E-01 5.50000E+00
 -1       250 5.00000E-01 2.50000E-01 6.00000E+00
 -1       251 2.50000E-01 5.00000E-01 6.00000E+00
 -1       252 5.00000E-01 5.00000E-01 6.00000E+00
 -1       253 7.50000E-01 5.00000E-01 6.00000E+00
 -1       254 5.00000E-01 7.50000E-01 6.00000E+00
 -3
    3C                            24                                     1
 -1         1    4    0    1
 -2         1        10        95        19        61       105       222       192         9        93
 -2        94        20        62       103       219       190       104       220       221       193
 -1         2    4    0    1
 -2        10         2        13        95       105        34       134       222        11        12
 -2        96        93       103        33       132       219       106       133       223       220
 -1         3    4    0    1
 -2        19        95        16         4       192       222       163        79        94        97
 -2        17        18       190       219       161        78       221       224       164       191
 -1         4    4    0    1
 -2        95        13         3        16       222       134        64       163        96        14
 -2        15        97       219       132        63       161       223       135       162       224
 -1         5    4    0    1
 -2        61       105       222       192        59       109       228       196       104       220
 -2       221       193        60       107       225       194       108       226       227       197
 -1         6    4    0    1
 -2       105        34       134       222       109        36       138       228       106       133
 -2       223       220       107        35       136       225       110       137       229       226
 -1         7    4    0    1
 -2       192       222       163        79       196       228       167        81       221       224
 -2       164       191       194       225       165        80       227       230       168       195
 -1         8    4    0    1
 -2       222       134        64       163       228       138        66       167       223       135
 -2       162       224       225       136        65       165       229       139       166       230
 -1         9    4    0    1
 -2        59       109       228       196        57       113       234       200       108       226
 -2       227       197        58       111       231       198       112       232       233       201
 -1        10    4    0    1
 -2       109        36       138       228       113        38       142       234       110       137
 -2       229       226       111        37       140       231       114       141       235       232
 -1        11    4    0    1
 -2       196       228       167        81       200       234       171        83       227       230
 -2       168       195       198       231       169        82       233       236       172       199
 -1        12    4    0    1
 -2       228       138        66       167       234       142        68       171       229       139
 -2       166       230       231       140        67       169       235       143       170       236
 -1        13    4    0    1
 -2        57       113       234       200        55       117       240       204       112       232
 -2       233       201        56       115       237       202       116       238       239       205
 -1        14    4    0    1
 -2       113        38       142       234       117        40       146       240       114       141
 -2       235       232       115        39       144       237       118       145       241       238
 -1        15    4    0    1
 -2       200       234       171        83       204       240       175        85       233       236
 -2       172       199       202       237       173        84       239       242       176       203
 -1        16    4    0    1
 -2       234       142        68       171       240       146        70       175       235       143
 -2       170       236       237       144        69       173       241       147       174       242
 -1        17    4    0    1
 -2        55       117       240       204        53       121       246       208       116       238
 -2       239       205        54       119       243       206       120       244       245       209
 -1        18    4    0    1
 -2       117        40       146       240       121        42       150       246       118       145
 -2       241       238       119        41       148       243       122       149       247       244
 -1        19    4    0    1
 -2       204       240       175        85       208       246       179        87       239       242
 -2       176       203       206       243       177        86       245       248       180       207
 -1        20    4    0    1
 -2       240       146        70       175       246       150        72       179       241       147
 -2       174       242       243       148        71       177       247       151       178       248
 -1        21    4    0    1
 -2        53       121       246       208        51       125       252       212       120       244
 -2       245       209        52       123       249       210       124       250       251       213
 -1        22    4    0    1
 -2       121        42       150       246       125        44       154       252       122       149
 -2       247       244       123        43       152       249       126       153       253       250
 -1        23    4    0    1
 -2       208       246       179        87       212       252       183        89       245       248
 -2       180       207       210       249       181        88       251       254       184       211
 -1        24    4    0    1
 -2       246       150        72       179       252       154        74       183       247       151
 -2       178       248       249       152        73       181       253       155       182       254
 -3
    1PSTEP                         1           1           1          
  100CL  101 5.00000E-03         201                     1    1           1
 -4  DISP        4    1
 -5  D1          1    2    1    0
 -5  D2          1    2    2    0
 -5  D3          1    2    3    0
 -5  ALL         1    2    0    0    1ALL
 -1         1 0.00000E+00 0.00000E+00 0.00000E+00
 -1         2 0.00000E+00 0.00000E+00 0.00000E+00
 -1         3 0.00000E+00 0.00000E+00 0.00000E+00
 -1         4 0.00000E+00 0.00000E+00 0.00000E+00
 -1         9 0.00000E+00 0.00000E+00 0.00000E+00
 -1        10 0.00000E+00 0.00000E+00 0.00000E+00
 -1        11 0.00000E+00 0.00000E+00 0.00000E+00
 -1        12 0.00000E+00 0.00000E+00 0.00000E+00
 -1        13 0.00000E+00 0.00000E+00 0.00000E+00
 -1        14 0.00000E+00 0.00000E+00 0.00000E+00
 -1        15 0.00000E+00 0.00000E+00 0.00000E+00
 -1        16 0.00000E+00 0.00000E+00 0.00000E+00
 -1        17 0.00000E+00 0.00000E+00 0.00000E+00
 -1        18 0.00000E+00 0.00000E+00 0.00000E+00
 -1        19 0.00000E+00 0.00000E+00 0.00000E+00
 -1        20 0.00000E+00 0.00000E+00 0.00000E+00
 -1        33 6.38135E-05-1.55621E-04-2.04465E-04
 -1        34 3.13229E-05-4.81823E-04-3.74315E-04
 -1        35 2.57499E-05-9.70668E-04-4.83854E-04
 -1        36 8.13763E-06-1.52820E-03-5.40888E-04
 -1        37-5.18198E-06-2.11165E-03-5.47721E-04
 -1        38-2.11156E-05-2.69445E-03-5.19083E-04
 -1        39-4.25900E-05-3.19532E-03-3.84730E-04
 -1        40-4.32144E-05-3.54333E-03-2.09609E-04
 -1        41-4.42875E-05-3.58070E-03-6.39207E-05
 -1        42-6.12251E-05-3.74033E-03-1.48462E-04
 -1        43 6.20053E-05-3.47261E-03 8.56519E-05
 -1        44-6.08985E-05-3.46523E-03 4.48424E-04
 -1        51 6.08560E-05-3.46521E-03 4.48413E-04
 -1        52-6.20598E-05-3.47261E-03 8.56458E-05
 -1        53 6.11852E-05-3.74033E-03-1.48456E-04
 -1        54 4.42318E-05-3.58070E-03-6.39204E-05
 -1        55 4.31682E-05-3.54332E-03-2.09614E-04
 -1        56 4.25468E-05-3.19532E-03-3.84736E-04
 -1        57 2.10813E-05-2.69445E-03-5.19090E-04
 -1        58 5.15394E-06-2.11165E-03-5.47728E-04
 -1        59-8.15701E-06-1.52820E-03-5.40896E-04
 -1        60-2.57624E-05-9.70669E-04-4.83860E-04
 -1        61-3.13289E-05-4.81823E-04-3.74320E-04
 -1        62-6.38155E-05-1.55622E-04-2.04468E-04
 -1        63-6.26403E-05-1.53889E-04 2.01035E-04
 -1        64-3.11665E-05-4.81261E-04 3.66955E-04
 -1        65-2.34180E-05-9.70206E-04 4.73548E-04
 -1        66-7.93230E-06-1.53470E-03 5.27174E-04
 -1        67 4.98381E-06-2.10190E-03 5.30798E-04
 -1        68 1.45563E-05-2.69495E-03 4.93903E-04
 -1        69 5.86645E-05-3.20602E-03 3.58114E-04
 -1        70 6.60883E-05-3.63467E-03 1.84516E-04
 -1        71-5.68866E-06-3.45839E-03 3.33222E-05
 -1        72-1.04909E-04-3.47719E-03 7.91736E-05
 -1        73 2.03172E-04-3.88859E-03-1.68493E-04
 -1        74 3.20007E-04-4.41302E-03-4.94401E-04
 -1        78 6.26383E-05-1.53888E-04 2.01032E-04
 -1        79 3.11604E-05-4.81260E-04 3.66950E-04
 -1        80 2.34054E-05-9.70206E-04 4.73542E-04
 -1        81 7.91276E-06-1.53470E-03 5.27167E-04
 -1        82-5.01208E-06-2.10190E-03 5.30791E-04
 -1        83-1.45908E-05-2.69495E-03 4.93896E-04
 -1        84-5.87080E-05-3.20602E-03 3.58107E-04
 -1        85-6.61347E-05-3.63467E-03 1.84511E-04
 -1        86 5.63244E-06-3.45839E-03 3.33227E-05
 -1        87 1.04868E-04-3.47720E-03 7.91811E-05
 -1        88-2.03227E-04-3.88859E-03-1.68500E-04
 -1        89-3.20050E-04-4.41304E-03-4.94412E-04
 -1        93 0.00000E+00 0.00000E+00 0.00000E+00
 -1        94 0.00000E+00 0.00000E+00 0.00000E+00
 -1        95 0.00000E+00 0.00000E+00 0.00000E+00
 -1        96 0.00000E+00 0.00000E+00 0.00000E+00
 -1        97 0.00000E+00 0.00000E+00 0.00000E+00
 -1       103-7.30095E-10-1.81898E-04-2.00675E-04
 -1       104-1.56248E-05-5.01241E-04-3.80230E-04
 -1       105-3.05722E-09-5.03761E-04-3.82871E-04
 -1       106 1.56188E-05-5.01241E-04-3.80228E-04
 -1       107-6.04642E-09-9.80768E-04-4.86581E-04
 -1       108-3.30878E-06-1.53038E-03-5.44600E-04
 -1       109-1.00242E-08-1.54100E-03-5.43518E-04
 -1       110 3.28904E-06-1.53038E-03-5.44596E-04
 -1       111-1.37263E-08-2.10284E-03-5.51515E-04
 -1       112 7.48094E-06-2.71849E-03-5.21225E-04
 -1       113-1.82347E-08-2.71170E-03-5.22821E-04
 -1       114-7.51622E-06-2.71849E-03-5.21222E-04
 -1       115-2.10880E-08-3.15712E-03-3.93272E-04
 -1       116 3.30447E-05-3.51968E-03-2.04007E-04
 -1       117-2.62152E-08-3.64194E-03-1.83047E-04
 -1       118-3.30944E-05-3.51968E-03-2.04005E-04
 -1       119-2.52311E-08-3.55435E-03-6.58233E-05
 -1       120-7.10589E-06-3.91094E-03-1.12774E-04
 -1       121-2.96072E-08-3.76487E-03-1.17662E-04
 -1       122 7.05693E-06-3.91095E-03-1.12773E-04
 -1       123-2.30372E-08-3.48315E-03-2.57799E-05
 -1       124 1.49363E-04-2.96559E-03 4.29368E-04
 -1       125-4.28520E-08-3.58847E-03 4.48598E-04
 -1       126-1.49429E-04-2.96560E-03 4.29355E-04
 -1       132 7.15995E-07-1.18654E-04-1.59600E-06
 -1       133 1.61275E-05-4.69556E-04-1.77972E-04
 -1       134 8.86488E-07-4.74261E-04-2.87048E-06
 -1       135-1.53948E-05-4.69662E-04 1.71164E-04
 -1       136-1.70214E-07-9.53147E-04-5.56835E-06
 -1       137 4.79875E-06-1.52627E-03-2.68560E-04
 -1       138 5.06273E-07-1.51845E-03-7.34380E-06
 -1       139-3.67766E-06-1.52797E-03 2.55146E-04
 -1       140 1.68409E-06-2.12580E-03-9.16664E-06
 -1       141-1.04786E-05-2.67988E-03-2.44281E-04
 -1       142 5.50788E-06-2.68635E-03-5.09334E-06
 -1       143 1.12969E-05-2.68605E-03 2.24157E-04
 -1       144-8.91113E-06-3.21946E-03-1.26765E-05
 -1       145-2.03091E-05-3.56211E-03-1.32027E-04
 -1       146-1.30015E-05-3.46503E-03-2.47844E-05
 -1       147 1.80857E-05-3.58633E-03 1.00738E-04
 -1       148 2.70585E-05-3.68126E-03-2.37066E-05
 -1       149-3.29499E-05-3.42155E-03-4.69235E-05
 -1       150 8.51173E-05-3.44827E-03-1.92045E-06
 -1       151 2.85630E-05-3.35355E-03 4.67465E-08
 -1       152-1.26916E-04-3.72133E-03 1.17063E-05
 -1       153 7.04465E-05-3.63424E-03 1.90978E-04
 -1       154-1.20092E-04-2.50077E-03-2.07338E-05
 -1       155-6.62676E-05-3.88823E-03-2.37918E-04
 -1       161-7.51867E-10-1.80693E-04 1.96951E-04
 -1       162-1.53711E-05-5.00599E-04 3.73498E-04
 -1       163-3.10255E-09-5.01308E-04 3.75667E-04
 -1       164 1.53651E-05-5.00599E-04 3.73495E-04
 -1       165-6.10791E-09-9.80829E-04 4.76535E-04
 -1       166-3.95488E-06-1.52774E-03 5.30509E-04
 -1       167-1.01142E-08-1.53695E-03 5.32734E-04
 -1       168 3.93498E-06-1.52774E-03 5.30506E-04
 -1       169-1.38268E-08-2.10370E-03 5.30792E-04
 -1       170 7.49439E-06-2.71841E-03 5.01224E-04
 -1       171-1.83802E-08-2.68036E-03 4.96796E-04
 -1       172-7.52992E-06-2.71841E-03 5.01221E-04
 -1       173-2.12283E-08-3.17775E-03 3.68925E-04
 -1       174 3.14973E-05-3.46130E-03 1.70976E-04
 -1       175-2.63991E-08-3.56127E-03 1.72561E-04
 -1       176-3.15473E-05-3.46130E-03 1.70974E-04
 -1       177-2.53942E-08-3.51126E-03 2.08160E-05
 -1       178-4.49109E-05-4.00823E-03 7.16464E-05
 -1       179-2.99507E-08-3.57884E-03 4.82110E-05
 -1       180 4.48614E-05-4.00823E-03 7.16454E-05
 -1       181-2.34387E-08-3.68321E-03-6.06138E-05
 -1       182 1.15277E-04-2.56182E-03-4.70948E-04
 -1       183-4.35077E-08-4.35539E-03-4.76281E-04
 -1       184-1.15343E-04-2.56183E-03-4.70933E-04
 -1       190-7.18423E-07-1.18654E-04-1.59862E-06
 -1       191 1.53887E-05-4.69662E-04 1.71160E-04
 -1       192-8.92425E-07-4.74261E-04-2.87521E-06
 -1       193-1.61335E-05-4.69557E-04-1.77977E-04
 -1       194 1.57248E-07-9.53147E-04-5.57487E-06
 -1       195 3.65864E-06-1.52797E-03 2.55139E-04
 -1       196-5.24758E-07-1.51845E-03-7.35088E-06
 -1       197-4.81770E-06-1.52627E-03-2.68567E-04
 -1       198-1.71307E-06-2.12580E-03-9.17405E-06
 -1       199-1.13300E-05-2.68605E-03 2.24150E-04
 -1       200-5.53965E-06-2.68635E-03-5.09879E-06
 -1       201 1.04456E-05-2.67988E-03-2.44288E-04
 -1       202 8.86662E-06-3.21946E-03-1.26843E-05
 -1       203-1.81285E-05-3.58633E-03 1.00733E-04
 -1       204 1.29622E-05-3.46503E-03-2.47896E-05
 -1       205 2.02665E-05-3.56211E-03-1.32032E-04
 -1       206-2.71203E-05-3.68126E-03-2.37053E-05
 -1       207-2.85951E-05-3.35356E-03 5.76208E-08
 -1       208-8.51417E-05-3.44827E-03-1.89928E-06
 -1       209 3.29178E-05-3.42155E-03-4.69126E-05
 -1       210 1.26859E-04-3.72133E-03 1.16872E-05
 -1       211 6.62515E-05-3.88824E-03-2.37922E-04
 -1       212 1.20102E-04-2.50077E-03-2.07563E-05
 -1       213-7.04618E-05-3.63423E-03 1.90972E-04
 -1       219-8.71235E-10-1.44427E-04-1.42669E-06
 -1       220-3.26404E-09-4.89378E-04-1.83623E-04
 -1       221-4.18355E-07-4.90904E-04-3.63386E-06
 -1       222-3.37481E-09-4.92314E-04-3.79649E-06
 -1       223 4.12140E-07-4.90904E-04-3.63155E-06
 -1       224-3.28667E-09-4.88004E-04 1.76667E-04
 -1       225-6.03399E-09-9.65296E-04-5.12546E-06
 -1       226-1.03247E-08-1.53380E-03-2.72856E-04
 -1       227-3.73452E-07-1.51970E-03-6.86170E-06
 -1       228-1.06046E-08-1.52158E-03-8.44505E-06
 -1       229 3.53530E-07-1.51970E-03-6.85842E-06
 -1       230-1.03701E-08-1.53217E-03 2.57669E-04
 -1       231-1.33863E-08-2.12437E-03-7.46346E-06
 -1       232-1.88413E-08-2.68786E-03-2.49309E-04
 -1       233-2.24292E-06-2.68363E-03-1.26997E-05
 -1       234-1.94983E-08-2.68081E-03-1.39699E-05
 -1       235 2.20778E-06-2.68363E-03-1.26962E-05
 -1       236-1.89125E-08-2.67067E-03 2.27078E-04
 -1       237-2.02878E-08-3.19174E-03-9.35537E-06
 -1       238-2.77360E-08-3.61096E-03-1.24025E-04
 -1       239 5.77638E-06-3.45299E-03-1.43696E-05
 -1       240-2.92038E-08-3.47704E-03-2.00725E-05
 -1       241-5.82607E-06-3.45299E-03-1.43703E-05
 -1       242-2.78327E-08-3.57363E-03 8.83794E-05
 -1       243-2.25141E-08-3.65539E-03-2.11844E-05
 -1       244-3.27575E-08-3.52052E-03-2.05119E-05
 -1       245-3.38863E-05-3.61117E-03-2.62367E-05
 -1       246-3.65318E-08-3.65196E-03-1.97224E-05
 -1       247 3.38395E-05-3.61117E-03-2.62333E-05
 -1       248-3.29218E-08-3.43662E-03-1.00835E-05
 -1       249-1.91031E-08-3.52177E-03-1.36021E-05
 -1       250-5.21144E-08-4.08212E-03 1.74492E-04
 -1       251 3.07072E-05-2.57172E-03-1.04965E-05
 -1       252-5.98345E-08-3.12405E-03-1.65660E-05
 -1       253-3.07662E-05-2.57172E-03-1.05398E-05
 -1       254-5.25673E-08-4.41334E-03-2.54064E-04
 -3
    1PSTEP                         2           2           1          
  100CL  102 1.00000E-02         201                     1    2           1
 -4  DISP        4    1
 -5  D1          1    2    1    0
 -5  D2          1    2    2    0
 -5  D3          1    2    3    0
 -5  ALL         1    2    0    0    1ALL
 -1         1 0.00000E+00 0.00000E+00 0.00000E+00
 -1         2 0.00000E+00 0.00000E+00 0.00000E+00
 -1         3 0.00000E+00 0.00000E+00 0.00000E+00
 -1         4 0.00000E+00 0.00000E+00 0.00000E+00
 -1         9 0.00000E+00 0.00000E+00 0.00000E+00
 -1        10 0.00000E+00 0.00000E+00 0.00000E+00
 -1        11 0.00000E+00 0.00000E+00 0.00000E+00
 -1        12 0.00000E+00 0.00000E+00 0.00000E+00
 -1        13 0.00000E+00 0.00000E+00 0.00000E+00
 -1        14 0.00000E+00 0.00000E+00 0.00000E+00
 -1        15 0.00000E+00 0.00000E+00 0.00000E+00
 -1        16 0.00000E+00 0.00000E+00 0.00000E+00
 -1        17 0.00000E+00 0.00000E+00 0.00000E+00
 -1        18 0.00000E+00 0.00000E+00 0.00000E+00
 -1        19 0.00000E+00 0.00000E+00 0.00000E+00
 -1        20 0.00000E+00 0.00000E+00 0.00000E+00
 -1        33-3.20028E-05 7.91898E-05 1.03028E-04
 -1        34-1.54907E-05 2.44855E-04 1.87774E-04
 -1        35-1.27687E-05 4.92663E-04 2.42777E-04
 -1        36-4.53459E-06 7.74460E-04 2.70115E-04
 -1        37 4.29729E-06 1.07208E-03 2.71913E-04
 -1        38 1.35206E-05 1.36786E-03 2.50344E-04
 -1        39 2.06311E-05 1.60916E-03 1.85263E-04
 -1        40 1.38106E-05 1.78355E-03 9.24807E-05
 -1        41 3.53350E-05 1.81812E-03 2.08188E-05
 -1        42 4.54937E-05 1.87249E-03 1.08869E-05
 -1        43-4.02869E-05 1.69684E-03-7.85034E-05
 -1        44-1.55744E-04 1.60451E-03-2.33986E-04
 -1        51 1.55673E-04 1.60462E-03-2.33980E-04
 -1        52 4.01777E-05 1.69685E-03-7.85332E-05
 -1        53-4.55067E-05 1.87250E-03 1.09326E-05
 -1        54-3.54057E-05 1.81811E-03 2.08175E-05
 -1        55-1.38540E-05 1.78356E-03 9.24740E-05
 -1        56-2.06896E-05 1.60916E-03 1.85254E-04
 -1        57-1.35555E-05 1.36787E-03 2.50339E-04
 -1        58-4.33304E-06 1.07208E-03 2.71904E-04
 -1        59 4.51345E-06 7.74462E-04 2.70107E-04
 -1        60 1.27525E-05 4.92662E-04 2.42769E-04
 -1        61 1.54843E-05 2.44855E-04 1.87769E-04
 -1        62 3.20002E-05 7.91887E-05 1.03025E-04
 -1        63 3.19952E-05 7.91796E-05-1.03009E-04
 -1        64 1.54839E-05 2.44851E-04-1.87734E-04
 -1        65 1.27391E-05 4.92664E-04-2.42722E-04
 -1        66 4.51236E-06 7.74500E-04-2.70045E-04
 -1        67-4.32161E-06 1.07201E-03-2.71827E-04
 -1        68-1.35086E-05 1.36785E-03-2.50214E-04
 -1        69-2.08183E-05 1.60928E-03-1.85131E-04
 -1        70-1.40108E-05 1.78415E-03-9.23661E-05
 -1        71-3.49644E-05 1.81722E-03-2.06969E-05
 -1        72-4.43192E-05 1.87071E-03-1.05608E-05
 -1        73 3.79322E-05 1.70006E-03 7.89932E-05
 -1        74 1.53110E-04 1.61185E-03 2.34209E-04
 -1        78-3.19976E-05 7.91807E-05-1.03012E-04