    1C
    1UUSER                                                              
    1UDATE              15.july.2018                                    
    1UTIME              12:26:51                                        
    1UHOST                                                              
    1UPGM               CalculiX                                        
    1UVERSION           Version 2.13                             
    1UCOMPILETIME       jue jun 14 00:40:39 CEST 2018                    
    1UDIR                                                               
    1UDBN                                                               
    1UMAT    1EL                                                        
    2C                            81                                     1
 -1         5 0.00000E+00 0.00000E+00 8.00000E+00
 -1         6 1.00000E+00 0.00000E+00 8.00000E+00
 -1         7 1.00000E+00 1.00000E+00 8.00000E+00
 -1         8 0.00000E+00 1.00000E+00 8.00000E+00
 -1        21 2.50000E-01 0.00000E+00 8.00000E+00
 -1        22 5.00000E-01 0.00000E+00 8.00000E+00
 -1        23 7.50000E-01 0.00000E+00 8.00000E+00
 -1        24 1.00000E+00 2.50000E-01 8.00000E+00
 -1        25 1.00000E+00 5.00000E-01 8.00000E+00
 -1        26 1.00000E+00 7.50000E-01 8.00000E+00
 -1        27 7.50000E-01 1.00000E+00 8.00000E+00
 -1        28 5.00000E-01 1.00000E+00 8.00000E+00
 -1        29 2.50000E-01 1.00000E+00 8.00000E+00
 -1        30 0.00000E+00 7.50000E-01 8.00000E+00
 -1        31 0.00000E+00 5.00000E-01 8.00000E+00
 -1        32 0.00000E+00 2.50000E-01 8.00000E+00
 -1        44 1.00000E+00 0.00000E+00 6.00000E+00
 -1        45 1.00000E+00 0.00000E+00 6.50000E+00
 -1        46 1.00000E+00 0.00000E+00 7.00000E+00
 -1        47 1.00000E+00 0.00000E+00 7.50000E+00
 -1        48 0.00000E+00 0.00000E+00 7.50000E+00
 -1        49 0.00000E+00 0.00000E+00 7.00000E+00
 -1        50 0.00000E+00 0.00000E+00 6.50000E+00
 -1        51 0.00000E+00 0.00000E+00 6.00000E+00
 -1        74 1.00000E+00 1.00000E+00 6.00000E+00
 -1        75 1.00000E+00 1.00000E+00 6.50000E+00
 -1        76 1.00000E+00 1.00000E+00 7.00000E+00
 -1        77 1.00000E+00 1.00000E+00 7.50000E+00
 -1        89 0.00000E+00 1.00000E+00 6.00000E+00
 -1        90 0.00000E+00 1.00000E+00 6.50000E+00
 -1        91 0.00000E+00 1.00000E+00 7.00000E+00
 -1        92 0.00000E+00 1.00000E+00 7.50000E+00
 -1        98 5.00000E-01 2.50000E-01 8.00000E+00
 -1        99 2.50000E-01 5.00000E-01 8.00000E+00
 -1       100 5.00000E-01 5.00000E-01 8.00000E+00
 -1       101 7.50000E-01 5.00000E-01 8.00000E+00
 -1       102 5.00000E-01 7.50000E-01 8.00000E+00
 -1       124 2.50000E-01 0.00000E+00 6.00000E+00
 -1       125 5.00000E-01 0.00000E+00 6.00000E+00
 -1       126 7.50000E-01 0.00000E+00 6.00000E+00
 -1       127 5.00000E-01 0.00000E+00 6.50000E+00
 -1       128 2.50000E-01 0.00000E+00 7.00000E+00
 -1       129 5.00000E-01 0.00000E+00 7.00000E+00
 -1       130 7.50000E-01 0.00000E+00 7.00000E+00
 -1       131 5.00000E-01 0.00000E+00 7.50000E+00
 -1       153 1.00000E+00 2.50000E-01 6.00000E+00
 -1       154 1.00000E+00 5.00000E-01 6.00000E+00
 -1       155 1.00000E+00 7.50000E-01 6.00000E+00
 -1       156 1.00000E+00 5.00000E-01 6.50000E+00
 -1       157 1.00000E+00 2.50000E-01 7.00000E+00
 -1       158 1.00000E+00 5.00000E-01 7.00000E+00
 -1       159 1.00000E+00 7.50000E-01 7.00000E+00
 -1       160 1.00000E+00 5.00000E-01 7.50000E+00
 -1       182 7.50000E-01 1.00000E+00 6.00000E+00
 -1       183 5.00000E-01 1.00000E+00 6.00000E+00
 -1       184 2.50000E-01 1.00000E+00 6.00000E+00
 -1       185 5.00000E-01 1.00000E+00 6.50000E+00
 -1       186 7.50000E-01 1.00000E+00 7.00000E+00
 -1       187 5.00000E-01 1.00000E+00 7.00000E+00
 -1       188 2.50000E-01 1.00000E+00 7.00000E+00
 -1       189 5.00000E-01 1.00000E+00 7.50000E+00
 -1       211 0.00000E+00 7.50000E-01 6.00000E+00
 -1       212 0.00000E+00 5.00000E-01 6.00000E+00
 -1       213 0.00000E+00 2.50000E-01 6.00000E+00
 -1       214 0.00000E+00 5.00000E-01 6.50000E+00
 -1       215 0.00000E+00 7.50000E-01 7.00000E+00
 -1       216 0.00000E+00 5.00000E-01 7.00000E+00
 -1       217 0.00000E+00 2.50000E-01 7.00000E+00
 -1       218 0.00000E+00 5.00000E-01 7.50000E+00
 -1       250 5.00000E-01 2.50000E-01 6.00000E+00
 -1       251 2.50000E-01 5.00000E-01 6.00000E+00
 -1       252 5.00000E-01 5.00000E-01 6.00000E+00
 -1       253 7.50000E-01 5.00000E-01 6.00000E+00
 -1       254 5.00000E-01 7.50000E-01 6.00000E+00
 -1       255 5.00000E-01 5.00000E-01 6.50000E+00
 -1       256 5.00000E-01 2.50000E-01 7.00000E+00
 -1       257 2.50000E-01 5.00000E-01 7.00000E+00
 -1       258 5.00000E-01 5.00000E-01 7.00000E+00
 -1       259 7.50000E-01 5.00000E-01 7.00000E+00
 -1       260 5.00000E-01 7.50000E-01 7.00000E+00
 -1       261 5.00000E-01 5.00000E-01 7.50000E+00
 -3
    3C                             8                                     1
 -1        25    4    0    1
 -2        51       125       252       212        49       129       258       216       124       250
 -2       251       213        50       127       255       214       128       256       257       217
 -1        26    4    0    1
 -2       125        44       154       252       129        46       158       258       126       153
 -2       253       250       127        45       156       255       130       157       259       256
 -1        27    4    0    1
 -2       212       252       183        89       216       258       187        91       251       254
 -2       184       211       214       255       185        90       257       260       188       215
 -1        28    4    0    1
 -2       252       154        74       183       258       158        76       187       253       155
 -2       182       254       255       156        75       185       259       159       186       260
 -1        29    4    0    1
 -2        49       129       258       216         5        22       100        31       128       256
 -2       257       217        48       131       261       218        21        98        99        32
 -1        30    4    0    1
 -2       129        46       158       258        22         6        25       100       130       157
 -2       259       256       131        47       160       261        23        24       101        98
 -1        31    4    0    1
 -2       216       258       187        91        31       100        28         8       257       260
 -2       188       215       218       261       189        92        99       102        29        30
 -1        32    4    0    1
 -2       258       158        76       187       100        25         7        28       259       159
 -2       186       260       261       160        77       189       101        26        27       102
 -3
    1PSTEP                         1           1           1          
  100CL  101 5.00000E-03          81                     1    1           1
 -4  DISP        4    1
 -5  D1          1    2    1    0
 -5  D2          1    2    2    0
 -5  D3          1    2    3    0
 -5  ALL         1    2    0    0    1ALL
 -1         5 0.00000E+00 0.00000E+00 0.00000E+00
 -1         6 0.00000E+00 0.00000E+00 0.00000E+00
 -1         7 0.00000E+00 0.00000E+00 0.00000E+00
 -1         8 0.00000E+00 0.00000E+00 0.00000E+00
 -1        21 0.00000E+00 0.00000E+00 0.00000E+00
 -1        22 0.00000E+00 0.00000E+00 0.00000E+00
 -1        23 0.00000E+00 0.00000E+00 0.00000E+00
 -1        24 0.00000E+00 0.00000E+00 0.00000E+00
 -1        25 0.00000E+00 0.00000E+00 0.00000E+00
 -1        26 0.00000E+00 0.00000E+00 0.00000E+00
 -1        27 0.00000E+00 0.00000E+00 0.00000E+00
 -1        28 0.00000E+00 0.00000E+00 0.00000E+00
 -1        29 0.00000E+00 0.00000E+00 0.00000E+00
 -1        30 0.00000E+00 0.00000E+00 0.00000E+00
 -1        31 0.00000E+00 0.00000E+00 0.00000E+00
 -1        32 0.00000E+00 0.00000E+00 0.00000E+00
 -1        44-5.92376E-05-3.46446E-03 4.48571E-04
 -1        45 5.68974E-05-2.56182E-03 7.85369E-04
 -1        46-4.78877E-05-1.79612E-03 9.49277E-04
 -1        47 1.30925E-04-6.75162E-04 5.43262E-04
 -1        48-1.30926E-04-6.75162E-04 5.43263E-04
 -1        49 4.78878E-05-1.79612E-03 9.49277E-04
 -1        50-5.68981E-05-2.56182E-03 7.85368E-04
 -1        51 5.92414E-05-3.46446E-03 4.48567E-04
 -1        74 3.17325E-04-4.40897E-03-4.94493E-04
 -1        75 1.90235E-04-2.97071E-03-7.84653E-04
 -1        76-1.09791E-04-1.59862E-03-9.49920E-04
 -1        77-2.07634E-04-5.27173E-04-5.58234E-04
 -1        89-3.17321E-04-4.40897E-03-4.94498E-04
 -1        90-1.90236E-04-2.97071E-03-7.84654E-04
 -1        91 1.09791E-04-1.59862E-03-9.49920E-04
 -1        92 2.07634E-04-5.27173E-04-5.58234E-04
 -1        98 0.00000E+00 0.00000E+00 0.00000E+00
 -1        99 0.00000E+00 0.00000E+00 0.00000E+00
 -1       100 0.00000E+00 0.00000E+00 0.00000E+00
 -1       101 0.00000E+00 0.00000E+00 0.00000E+00
 -1       102 0.00000E+00 0.00000E+00 0.00000E+00
 -1       124 1.49896E-04-2.96638E-03 4.29705E-04
 -1       125 1.94456E-10-3.58960E-03 4.48626E-04
 -1       126-1.49894E-04-2.96638E-03 4.29705E-04
 -1       127 3.15545E-10-2.56278E-03 9.03656E-04
 -1       128-9.23613E-06-1.95279E-03 9.48172E-04
 -1       129-4.50228E-10-1.81433E-03 9.41514E-04
 -1       130 9.23564E-06-1.95279E-03 9.48172E-04
 -1       131-1.21940E-10-7.36421E-04 5.56340E-04
 -1       153 6.96923E-05-3.63675E-03 1.91350E-04
 -1       154-1.19998E-04-2.50359E-03-2.08444E-05
 -1       155-6.46050E-05-3.88898E-03-2.37903E-04
 -1       156-1.19986E-04-2.78946E-03-6.45081E-05
 -1       157-2.04975E-05-1.50900E-03 3.92344E-04
 -1       158 8.83228E-05-1.56706E-03-2.93012E-05
 -1       159 4.67341E-05-1.47579E-03-4.10999E-04
 -1       160 3.97321E-05-6.56509E-04 4.91774E-06
 -1       182 1.15219E-04-2.56375E-03-4.71128E-04
 -1       183 4.14217E-10-4.35386E-03-4.76552E-04
 -1       184-1.15217E-04-2.56375E-03-4.71129E-04
 -1       185 2.93957E-10-2.83313E-03-8.74197E-04
 -1       186-4.41109E-05-2.16207E-03-9.82654E-04
 -1       187-4.33848E-10-1.83187E-03-9.63786E-04
 -1       188 4.41104E-05-2.16207E-03-9.82655E-04
 -1       189-1.28265E-10-7.20039E-04-5.64497E-04
 -1       211 6.46107E-05-3.88899E-03-2.37907E-04
 -1       212 1.20007E-04-2.50359E-03-2.08497E-05
 -1       213-6.96863E-05-3.63675E-03 1.91347E-04
 -1       214 1.19985E-04-2.78946E-03-6.45097E-05
 -1       215-4.67335E-05-1.47579E-03-4.11000E-04
 -1       216-8.83220E-05-1.56706E-03-2.93010E-05
 -1       217 2.04982E-05-1.50900E-03 3.92344E-04
 -1       218-3.97327E-05-6.56509E-04 4.91850E-06
 -1       250-4.31480E-10-4.08099E-03 1.74254E-04
 -1       251 3.01284E-05-2.57198E-03-1.03533E-05
 -1       252-1.16113E-09-3.12399E-03-1.61173E-05
 -1       253-3.01258E-05-2.57198E-03-1.03551E-05
 -1       254-4.02321E-10-4.41168E-03-2.54343E-04
 -1       255 9.24999E-10-2.59952E-03-3.20785E-05
 -1       256-8.02897E-10-1.60750E-03 3.95736E-04
 -1       257-4.10571E-05-1.74945E-03-1.20312E-05
 -1       258-1.11698E-09-1.79017E-03-1.45348E-05
 -1       259 4.10565E-05-1.74945E-03-1.20303E-05
 -1       260-7.78228E-10-1.62269E-03-4.18325E-04
 -1       261 1.85687E-11-7.16994E-04-1.95542E-06
 -3
    1PSTEP                         2           2           1          
  100CL  102 1.00000E-02          81                     1    2           1
 -4  DISP        4    1
 -5  D1          1    2    1    0
 -5  D2          1    2    2    0
 -5  D3          1    2    3    0
 -5  ALL         1    2    0    0    1ALL
 -1         5 0.00000E+00 0.00000E+00 0.00000E+00
 -1         6 0.00000E+00 0.00000E+00 0.00000E+00
 -1         7 0.00000E+00 0.00000E+00 0.00000E+00
 -1         8 0.00000E+00 0.00000E+00 0.00000E+00
 -1        21 0.00000E+00 0.00000E+00 0.00000E+00
 -1        22 0.00000E+00 0.00000E+00 0.00000E+00
 -1        23 0.00000E+00 0.00000E+00 0.00000E+00
 -1        24 0.00000E+00 0.00000E+00 0.00000E+00
 -1        25 0.00000E+00 0.00000E+00 0.00000E+00
 -1        26 0.00000E+00 0.00000E+00 0.00000E+00
 -1        27 0.00000E+00 0.00000E+00 0.00000E+00
 -1        28 0.00000E+00 0.00000E+00 0.00000E+00
 -1        29 0.00000E+00 0.00000E+00 0.00000E+00
 -1        30 0.00000E+00 0.00000E+00 0.00000E+00
 -1        31 0.00000E+00 0.00000E+00 0.00000E+00
 -1        32 0.00000E+00 0.00000E+00 0.00000E+00
 -1        44-1.36864E-04 1.62418E-03-2.33803E-04
 -1        45-2.83997E-05 1.25649E-03-3.77567E-04
 -1        46 3.71270E-05 9.08886E-04-4.32488E-04
 -1        47-5.60218E-05 3.67248E-04-2.83684E-04
 -1        48 5.59926E-05 3.67240E-04-2.83674E-04
 -1        49-3.72783E-05 9.08885E-04-4.32441E-04
 -1        50 2.82814E-05 1.25646E-03-3.77376E-04
 -1        51 1.36539E-04 1.62398E-03-2.33551E-04
 -1        74 1.51400E-04 1.61274E-03 2.33785E-04
 -1        75 3.63545E-05 1.24923E-03 3.77401E-04
 -1        76-4.22384E-05 9.13633E-04 4.32438E-04
 -1        77 5.36526E-05 3.69209E-04 2.83744E-04
 -1        89-1.51701E-04 1.61293E-03 2.34015E-04
 -1        90-3.64833E-05 1.24928E-03 3.77588E-04
 -1        91 4.20989E-05 9.13628E-04 4.32505E-04
 -1        92-5.36803E-05 3.69220E-04 2.83766E-04
 -1        98 0.00000E+00 0.00000E+00 0.00000E+00
 -1        99 0.00000E+00 0.00000E+00 0.00000E+00
 -1       100 0.00000E+00 0.00000E+00 0.00000E+00
 -1       101 0.00000E+00 0.00000E+00 0.00000E+00
 -1       102 0.00000E+00 0.00000E+00 0.00000E+00
 -1       124 3.43500E-06 1.47357E-03-2.20043E-04
 -1       125-7.10118E-08 1.77282E-03-2.31204E-04
 -1       126-3.69425E-06 1.47359E-03-2.20061E-04
 -1       127-1.19973E-07 1.30061E-03-4.15553E-04
 -1       128-2.83344E-06 9.60278E-04-4.63341E-04
 -1       129-1.83762E-08 8.89138E-04-4.71324E-04
 -1       130 2.74956E-06 9.60293E-04-4.63390E-04
 -1       131-1.64663E-08 3.75243E-04-2.75963E-04
 -1       153 1.17855E-04 1.91509E-03-1.03729E-04
 -1       154 3.61618E-06 1.68464E-03 4.51954E-08
 -1       155-1.23995E-04 1.91533E-03 1.03841E-04
 -1       156 1.04986E-07 1.40453E-03-7.29771E-07
 -1       157-2.34796E-05 7.91722E-04-1.86079E-04
 -1       158-3.79263E-07 8.10015E-04-2.64945E-07
 -1       159 2.45470E-05 7.92627E-04 1.86196E-04
 -1       160-1.99149E-07 3.08865E-04-1.19363E-07
 -1       182 4.61000E-06 1.47719E-03 2.20224E-04
 -1       183-8.41519E-08 1.77053E-03 2.31239E-04
 -1       184-4.87011E-06 1.47722E-03 2.20294E-04
 -1       185-1.07098E-07 1.30283E-03 4.17401E-04
 -1       186-3.73732E-06 9.60060E-04 4.63422E-04
 -1       187-2.20870E-08 8.88961E-04 4.72219E-04
 -1       188 3.65548E-06 9.60071E-04 4.63468E-04
 -1       189-1.50242E-08 3.75093E-04 2.76156E-04
 -1       211 1.23635E-04 1.91548E-03 1.03992E-04
 -1       212-3.92538E-06 1.68466E-03 3.29956E-07
 -1       213-1.18223E-04 1.91496E-03-1.03625E-04
 -1       214-3.59715E-07 1.40452E-03-6.05057E-07
 -1       215-2.46383E-05 7.92619E-04 1.86294E-04
 -1       216 3.19584E-07 8.10022E-04-1.90153E-07
 -1       217 2.33820E-05 7.91734E-04-1.85979E-04
 -1       218 1.62684E-07 3.08865E-04-7.09529E-08
 -1       250-1.68368E-07 1.91233E-03-1.03157E-04
 -1       251-2.57603E-06 1.21073E-03 3.25825E-07
 -1       252-2.85436E-07 1.53958E-03 7.06160E-08
 -1       253 2.15475E-06 1.21072E-03 1.07785E-07
 -1       254-1.76125E-07 1.90964E-03 1.03299E-04
 -1       255-8.81728E-08 1.37296E-03 1.62947E-07
 -1       256-4.71434E-08 7.83251E-04-2.06958E-04
 -1       257 2.77973E-07 9.12873E-04 9.35318E-08
 -1       258-6.98439E-08 8.13417E-04 7.92489E-08
 -1       259-3.82079E-07 9.12870E-04 7.51759E-08
 -1       260-4.85437E-08 7.83542E-04 2.07035E-04
 -1       261-4.34936E-09 3.48742E-04 1.63161E-08
 -3
    1PSTEP                         3           3           1          
  100CL  103 1.50000E-02          81                     1    3           1
 -4  DISP        4    1
 -5  D1          1    2    1    0
 -5  D2          1    2    2    0
 -5  D3          1    2    3    0
 -5  ALL         1    2    0    0    1ALL
 -1         5 0.00000E+00 0.00000E+00 0.00000E+00
 -1         6 0.00000E+00 0.00000E+00 0.00000E+00
 -1         7 0.00000E+00 0.00000E+00 0.00000E+00
 -1         8 0.00000E+00 0.00000E+00 0.00000E+00
 -1        21 0.00000E+00 0.00000E+00 0.00000E+00
 -1        22 0.00000E+00 0.00000E+00 0.00000E+00
 -1        23 0.00000E+00 0.00000E+00 0.00000E+00
 -1        24 0.00000E+00 0.00000E+00 0.00000E+00
 -1        25 0.00000E+00 0.00000E+00 0.00000E+00
 -1        26 0.00000E+00 0.00000E+00 0.00000E+00
 -1        27 0.00000E+00 0.00000E+00 0.00000E+00
 -1        28 0.00000E+00 0.00000E+00 0.00000E+00
 -1        29 0.00000E+00 0.00000E+00 0.00000E+00
 -1        30 0.00000E+00 0.00000E+00 0.00000E+00
 -1        31 0.00000E+00 0.00000E+00 0.00000E+00
 -1        32 0.00000E+00 0.00000E+00 0.00000E+00
 -1        44 1.15732E-04-1.27895E-03 1.85081E-04
 -1        45 2.53661E-05-9.91942E-04 2.98650E-04
 -1        46-3.10974E-05-7.21428E-04 3.41942E-04
 -1        47 4.34205E-05-2.92128E-04 2.24877E-04
 -1        48-4.34207E-05-2.92117E-04 2.24848E-04
 -1        49 3.10563E-05-7.21412E-04 3.41906E-04
 -1        50-2.52711E-05-9.91952E-04 2.98724E-04
 -1        51-1.15646E-04-1.27924E-03 1.85230E-04
 -1        74-1.23083E-04-1.27248E-03-1.85182E-04
 -1        75-2.93948E-05-9.87933E-04-2.98625E-04
 -1        76 3.42794E-05-7.24586E-04-3.41855E-04
 -1        77-4.21528E-05-2.93319E-04-2.24853E-04
 -1        89 1.23209E-04-1.27215E-03-1.85051E-04
 -1        90 2.95450E-05-9.87923E-04-2.98568E-04
 -1        91-3.43231E-05-7.24570E-04-3.41919E-04
 -1        92 4.21625E-05-2.93323E-04-2.24902E-04
 -1        98 0.00000E+00 0.00000E+00 0.00000E+00
 -1        99 0.00000E+00 0.00000E+00 0.00000E+00
 -1       100 0.00000E+00 0.00000E+00 0.00000E+00
 -1       101 0.00000E+00 0.00000E+00 0.00000E+00
 -1       102 0.00000E+00 0.00000E+00 0.00000E+00
 -1       124-6.26158E-06-1.16908E-03 1.74388E-04
 -1       125 9.17327E-08-1.40207E-03 1.83095E-04
 -1       126 6.36500E-06-1.16901E-03 1.74342E-04
 -1       127 8.12431E-09-1.03043E-03 3.29348E-04
 -1       128 2.96070E-06-7.59864E-04 3.66795E-04
 -1       129 2.18928E-08-7.04244E-04 3.73534E-04
 -1       130-2.94968E-06-7.59857E-04 3.66803E-04
 -1       131-5.65363E-09-2.97254E-04 2.18491E-04
 -1       153-9.75348E-05-1.51527E-03 8.21509E-05
 -1       154-1.75244E-06-1.34070E-03-7.28416E-08
 -1       155 1.00265E-04-1.51965E-03-8.21571E-05
 -1       156 5.37305E-08-1.11256E-03 4.16771E-07
 -1       157 1.94403E-05-6.28348E-04 1.47184E-04
 -1       158-1.33024E-07-6.42074E-04 1.60117E-07
 -1       159-2.00690E-05-6.28085E-04-1.47228E-04
 -1       160 6.56730E-08-2.44329E-04 6.23915E-08
 -1       182-2.26320E-06-1.17121E-03-1.74306E-04
 -1       183 1.69062E-07-1.39959E-03-1.83064E-04
 -1       184 2.46030E-06-1.17113E-03-1.74353E-04
 -1       185 6.24032E-10-1.03117E-03-3.30104E-04
 -1       186 2.71721E-06-7.59369E-04-3.66772E-04
 -1       187 4.38885E-08-7.03568E-04-3.73917E-04
 -1       188-2.68529E-06-7.59343E-04-3.66776E-04
 -1       189-3.22873E-09-2.97209E-04-2.18612E-04
 -1       211-1.00241E-04-1.51945E-03-8.22592E-05
 -1       212 1.78345E-06-1.34073E-03 8.89410E-08
 -1       213 9.75265E-05-1.51548E-03 8.21663E-05
 -1       214-4.32276E-08-1.11252E-03 4.11930E-07
 -1       215 2.00805E-05-6.28089E-04-1.47221E-04
 -1       216 1.75892E-07-6.42078E-04 1.26002E-07
 -1       217-1.94258E-05-6.28332E-04 1.47186E-04
 -1       218-6.10467E-08-2.44323E-04 4.88049E-08
 -1       250 1.43372E-08-1.51364E-03 8.17090E-05
 -1       251 3.33592E-06-9.58071E-04 7.49542E-08
 -1       252-7.90407E-08-1.21830E-03 1.52436E-07
 -1       253-3.38061E-06-9.58051E-04-3.33942E-08
 -1       254 5.88864E-08-1.50709E-03-8.16221E-05
 -1       255 2.02047E-08-1.08835E-03-3.39769E-08
 -1       256 8.53120E-09-6.19777E-04 1.64064E-04
 -1       257-4.85190E-07-7.23578E-04-3.41287E-08
 -1       258-3.03911E-09-6.43218E-04-1.66938E-08
 -1       259 4.97082E-07-7.23577E-04-9.50891E-09
 -1       260 1.79215E-08-6.20662E-04-1.64031E-04
 -1       261 9.27804E-09-2.76159E-04-6.76130E-09
 -3
    1PSTEP                         4           4           1          
  100CL  104 2.00000E-02          81                     1    4           1
 -4  DISP        4    1
 -5  D1          1    2    1    0
 -5  D2          1    2    2    0
 -5  D3          1    2    3    0
 -5  ALL         1    2    0    0    1ALL
 -1         5 0.00000E+00 0.00000E+00 0.00000E+00
 -1         6 0.00000E+00 0.00000E+00 0.00000E+00
 -1         7 0.00000E+00 0.00000E+00 0.00000E+00
 -1         8 0.00000E+00 0.00000E+00 0.00000E+00
 -1        21 0.00000E+00 0.00000E+00 0.00000E+00
 -1        22 0.00000E+00 0.00000E+00 0.00000E+00
 -1        23 0.00000E+00 0.00000E+00 0.00000E+00
 -1        24 0.00000E+00 0.00000E+00 0.00000E+00
 -1        25 0.00000E+00 0.00000E+00 0.00000E+00
 -1        26 0.00000E+00 0.00000E+00 0.00000E+00
 -1        27 0.00000E+00 0.00000E+00 0.00000E+00
 -1        28 0.00000E+00 0.00000E+00 0.00000E+00
 -1        29 0.00000E+00 0.00000E+00 0.00000E+00
 -1        30 0.00000E+00 0.00000E+00 0.00000E+00
 -1        31 0.00000E+00 0.00000E+00 0.00000E+00
 -1        32 0.00000E+00 0.00000E+00 0.00000E+00
 -1        44-9.25886E-05 9.90518E-04-1.43893E-04
 -1        45-2.10262E-05 7.68985E-04-2.31813E-04
 -1        46 2.50043E-05 5.61218E-04-2.65630E-04
 -1        47-3.33723E-05 2.27235E-04-1.74689E-04
 -1        48 3.33813E-05 2.27232E-04-1.74691E-04
 -1        49-2.50117E-05 5.61210E-04-2.65628E-04
 -1        50 2.10569E-05 7.68975E-04-2.31821E-04
 -1        51 9.24681E-05 9.90599E-04-1.43860E-04
 -1        74 9.41129E-05 9.89360E-04 1.43887E-04
 -1        75 2.19118E-05 7.68220E-04 2.31799E-04
 -1        76-2.60038E-05 5.62143E-04 2.65622E-04
 -1        77 3.30855E-05 2.27484E-04 1.74693E-04
 -1        89-9.41938E-05 9.89338E-04 1.43942E-04
 -1        90-2.19190E-05 7.68196E-04 2.31800E-04
 -1        91 2.59998E-05 5.62152E-04 2.65623E-04
 -1        92-3.30835E-05 2.27480E-04 1.74693E-04
 -1        98 0.00000E+00 0.00000E+00 0.00000E+00
 -1        99 0.00000E+00 0.00000E+00 0.00000E+00
 -1       100 0.00000E+00 0.00000E+00 0.00000E+00
 -1       101 0.00000E+00 0.00000E+00 0.00000E+00
 -1       102 0.00000E+00 0.00000E+00 0.00000E+00
 -1       124 4.45633E-06 9.08999E-04-1.35603E-04
 -1       125 1.05860E-08 1.08866E-03-1.42264E-04
 -1       126-4.49220E-06 9.08965E-04-1.35566E-04
 -1       127-6.54065E-09 8.00627E-04-2.56395E-04
 -1       128-2.27678E-06 5.89912E-04-2.84955E-04
 -1       129 1.43920E-08 5.46797E-04-2.90338E-04
 -1       130 2.28453E-06 5.89914E-04-2.84967E-04
 -1       131 2.00672E-09 2.30807E-04-1.69721E-04
 -1       153 7.69606E-05 1.17722E-03-6.38957E-05
 -1       154 4.69027E-07 1.04214E-03 2.08778E-08
 -1       155-7.75702E-05 1.18051E-03 6.39006E-05
 -1       156-6.24340E-09 8.64875E-04-7.47504E-08
 -1       157-1.53753E-05 4.87851E-04-1.14356E-04
 -1       158 1.26977E-07 4.98090E-04-3.69976E-08
 -1       159 1.55349E-05 4.87391E-04 1.14364E-04
 -1       160-2.89057E-08 1.89521E-04-2.20903E-08
 -1       182 1.35247E-06 9.09365E-04 1.35572E-04
 -1       183-2.09460E-08 1.08831E-03 1.42253E-04
 -1       184-1.40218E-06 9.09375E-04 1.35581E-04
 -1       185-1.66733E-09 8.00875E-04 2.56589E-04
 -1       186-1.84926E-06 5.89813E-04 2.84960E-04
 -1       187-3.55327E-09 5.46394E-04 2.90418E-04
 -1       188 1.84127E-06 5.89813E-04 2.84965E-04
 -1       189 2.01369E-10 2.30797E-04 1.69754E-04
 -1       211 7.75690E-05 1.18048E-03 6.39104E-05
 -1       212-4.21664E-07 1.04213E-03-5.34004E-08
 -1       213-7.69899E-05 1.17726E-03-6.38653E-05
 -1       214 3.58996E-09 8.64874E-04-8.26014E-08
 -1       215-1.55347E-05 4.87391E-04 1.14363E-04
 -1       216-1.15280E-07 4.98077E-04-3.19463E-08
 -1       217 1.53751E-05 4.87838E-04-1.14365E-04
 -1       218 2.95080E-08 1.89518E-04-2.08533E-08
 -1       250 1.52949E-08 1.17594E-03-6.34761E-05
 -1       251-1.86383E-06 7.43667E-04-7.21890E-09
 -1       252 1.82153E-08 9.48310E-04 2.55324E-08
 -1       253 1.89901E-06 7.43674E-04 1.68398E-08
 -1       254-5.69676E-09 1.17245E-03 6.34768E-05
 -1       255 3.42904E-09 8.45490E-04-2.07498E-09
 -1       256 8.19694E-09 4.81370E-04-1.27478E-04
 -1       257 3.19272E-07 5.62104E-04 2.46937E-09
 -1       258 2.36977E-09 4.99483E-04-1.03577E-09
 -1       259-3.09501E-07 5.62110E-04 2.86681E-09
 -1       260 4.17753E-10 4.81918E-04 1.27474E-04
 -1       261 1.23440E-10 2.14309E-04 3.14077E-09
 -3
    1PSTEP                         5           5           1          
  100CL  105 2.50000E-02          81                     1    5           1
 -4  DISP        4    1
 -5  D1          1    2    1    0
 -5  D2          1    2    2    0
 -5  D3          1    2    3    0
 -5  ALL         1    2    0    0    1ALL
 -1         5 0.00000E+00 0.00000E+00 0.00000E+00
 -1         6 0.00000E+00 0.00000E+00 0.00000E+00
 -1         7 0.00000E+00 0.00000E+00 0.00000E+00
 -1         8 0.00000E+00 0.00000E+00 0.00000E+00
 -1        21 0.00000E+00 0.00000E+00 0.00000E+00
 -1        22 0.00000E+00 0.00000E+00 0.00000E+00
 -1        23 0.00000E+00 0.00000E+00 0.00000E+00
 -1        24 0.00000E+00 0.00000E+00 0.00000E+00
 -1        25 0.00000E+00 0.00000E+00 0.00000E+00
 -1        26 0.00000E+00 0.00000E+00 0.00000E+00
 -1        27 0.00000E+00 0.00000E+00 0.00000E+00
 -1        28 0.00000E+00 0.00000E+00 0.00000E+00
 -1        29 0.00000E+00 0.00000E+00 0.00000E+00
 -1        30 0.00000E+00 0.00000E+00 0.00000E+00
 -1        31 0.00000E+00 0.00000E+00 0.00000E+00
 -1        32 0.00000E+00 0.00000E+00 0.00000E+00
 -1        44 7.15677E-05-7.45482E-04 1.08586E-04
 -1        45 1.67803E-05-5.79284E-04 1.75076E-04
 -1        46-1.93406E-05-4.24342E-04 2.00504E-04
 -1        47 2.48965E-05-1.71926E-04 1.31892E-04
 -1        48-2.48950E-05-1.71919E-04 1.31867E-04
 -1        49 1.93330E-05-4.24318E-04 2.00466E-04
 -1        50-1.66962E-05-5.79304E-04 1.75104E-04
 -1        51-7.15085E-05-7.45556E-04 1.08617E-04
 -1        74-7.03524E-05-7.46254E-04-1.08633E-04
 -1        75-1.61222E-05-5.79760E-04-1.75162E-04
 -1        76 1.94439E-05-4.24503E-04-2.00472E-04
 -1        77-2.50345E-05-1.71826E-04-1.31853E-04
 -1        89 7.04722E-05-7.46171E-04-1.08670E-04
 -1        90 1.62303E-05-5.79732E-04-1.75169E-04
 -1        91-1.94472E-05-4.24510E-04-2.00503E-04
 -1        92 2.50440E-05-1.71830E-04-1.31882E-04
 -1        98 0.00000E+00 0.00000E+00 0.00000E+00
 -1        99 0.00000E+00 0.00000E+00 0.00000E+00
 -1       100 0.00000E+00 0.00000E+00 0.00000E+00
 -1       101 0.00000E+00 0.00000E+00 0.00000E+00
 -1       102 0.00000E+00 0.00000E+00 0.00000E+00
 -1       124-4.27430E-06-6.87022E-04 1.02327E-04
 -1       125 6.52396E-08-8.20109E-04 1.07355E-04
 -1       126 4.35386E-06-6.87028E-04 1.02371E-04
 -1       127 9.64209E-09-6.04061E-04 1.93531E-04
 -1       128 1.98617E-06-4.45089E-04 2.15080E-04
 -1       129 2.27006E-08-4.13007E-04 2.19232E-04
 -1       130-1.96265E-06-4.45093E-04 2.15084E-04
 -1       131-2.04095E-09-1.74317E-04 1.28113E-04
 -1       153-5.86746E-05-8.88294E-04 4.82544E-05
 -1       154 3.17027E-07-7.87892E-04-7.40588E-08
 -1       155 5.82151E-05-8.91662E-04-4.82314E-05
 -1       156 1.12867E-07-6.52765E-04-4.59211E-08
 -1       157 1.17386E-05-3.68634E-04 8.63260E-05
 -1       158-1.92968E-07-3.76137E-04 1.77560E-09
 -1       159-1.16331E-05-3.68021E-04-8.63073E-05
 -1       160-4.74365E-09-1.43020E-04 1.14134E-08
 -1       182-7.87892E-07-6.86855E-04-1.02302E-04
 -1       183 1.19920E-07-8.20053E-04-1.07414E-04
 -1       184 9.47261E-07-6.86867E-04-1.02364E-04
 -1       185 1.21094E-08-6.03919E-04-1.93426E-04
 -1       186 1.37811E-06-4.45114E-04-2.15100E-04
 -1       187 3.53575E-08-4.12822E-04-2.19198E-04
 -1       188-1.33948E-06-4.45106E-04-2.15105E-04
 -1       189-1.92684E-10-1.74395E-04-1.28135E-04
 -1       211-5.81671E-05-8.91601E-04-4.82788E-05
 -1       212-2.86962E-07-7.87915E-04 2.16806E-08
 -1       213 5.86816E-05-8.88368E-04 4.82495E-05
 -1       214-7.30955E-08-6.52746E-04-6.09569E-08
 -1       215 1.16525E-05-3.68031E-04-8.63212E-05
 -1       216 2.24011E-07-3.76139E-04-2.79061E-08
 -1       217-1.17192E-05-3.68618E-04 8.63099E-05
 -1       218 1.40564E-08-1.43016E-04 1.37698E-09
 -1       250 3.12460E-08-8.86906E-04 4.78777E-05
 -1       251 1.46401E-06-5.61088E-04 2.28993E-08
 -1       252-1.38291E-08-7.15426E-04 3.28824E-08
 -1       253-1.44976E-06-5.61071E-04-3.16930E-08
 -1       254 6.37841E-08-8.83766E-04-4.79416E-05
 -1       255 2.37845E-08-6.38635E-04 1.92820E-08
 -1       256 1.35239E-08-3.63256E-04 9.62316E-05
 -1       257-2.46697E-07-4.24383E-04-6.16066E-09
 -1       258 6.21205E-09-3.76680E-04-6.46400E-09
 -1       259 2.64246E-07-4.24383E-04 1.05133E-08
 -1       260 1.87433E-08-3.63856E-04-9.62335E-05
 -1       261 7.34123E-09-1.61710E-04-1.53360E-09
 -3
    1PSTEP                         6           6           1          
  100CL  106 3.00000E-02          81                     1    6           1
 -4  DISP        4    1
 -5  D1          1    2    1    0
 -5  D2          1    2    2    0
 -5  D3          1    2    3    0
 -5  ALL         1    2    0    0    1ALL
 -1         5 0.00000E+00 0.00000E+00 0.00000E+00
 -1         6 0.00000E+00 0.00000E+00 0.00000E+00
 -1         7 0.00000E+00 0.00000E+00 0.00000E+00
 -1         8 0.00000E+00 0.00000E+00 0.00000E+00
 -1        21 0.00000E+00 0.00000E+00 0.00000E+00
 -1        22 0.00000E+00 0.00000E+00 0.00000E+00
 -1        23 0.00000E+00 0.00000E+00 0.00000E+00
 -1        24 0.00000E+00 0.00000E+00 0.00000E+00
 -1        25 0.00000E+00 0.00000E+00 0.00000E+00
 -1        26 0.00000E+00 0.00000E+00 0.00000E+00
 -1        27 0.00000E+00 0.00000E+00 0.00000E+00
 -1        28 0.00000E+00 0.00000E+00 0.00000E+00
 -1        29 0.00000E+00 0.00000E+00 0.00000E+00
 -1        30 0.00000E+00 0.00000E+00 0.00000E+00
 -1        31 0.00000E+00 0.00000E+00 0.00000E+00
 -1        32 0.00000E+00 0.00000E+00 0.00000E+00
 -1        44-5.09438E-05 5.41876E-04-7.87847E-05
 -1        45-1.16833E-05 4.20761E-04-1.26884E-04
 -1        46 1.38017E-05 3.07274E-04-1.45391E-04
 -1        47-1.82276E-05 1.24415E-04-9.56066E-05