    1C
    1UUSER                                                              
    1UDATE              18.july.2018                                    
    1UTIME              00:15:48                                        
    1UHOST                                                              
    1UPGM               CalculiX                                        
    1UVERSION           Version 2.13                             
    1UCOMPILETIME       jue jun 14 00:40:39 CEST 2018                    
    1UDIR                                                               
    1UDBN                                                               
    1UMAT    1EL                                                        
    2C                           201                                     1
 -1         1 0.00000E+00 0.00000E+00 0.00000E+00
 -1         2 1.00000E+00 0.00000E+00 0.00000E+00
 -1         3 1.00000E+00 1.00000E+00 0.00000E+00
 -1         4 0.00000E+00 1.00000E+00 0.00000E+00
 -1         9 2.50000E-01 0.00000E+00 0.00000E+00
 -1        10 5.00000E-01 0.00000E+00 0.00000E+00
 -1        11 7.50000E-01 0.00000E+00 0.00000E+00
 -1        12 1.00000E+00 2.50000E-01 0.00000E+00
 -1        13 1.00000E+00 5.00000E-01 0.00000E+00
 -1        14 1.00000E+00 7.50000E-01 0.00000E+00
 -1        15 7.50000E-01 1.00000E+00 0.00000E+00
 -1        16 5.00000E-01 1.00000E+00 0.00000E+00
 -1        17 2.50000E-01 1.00000E+00 0.00000E+00
 -1        18 0.00000E+00 7.50000E-01 0.00000E+00
 -1        19 0.00000E+00 5.00000E-01 0.00000E+00
 -1        20 0.00000E+00 2.50000E-01 0.00000E+00
 -1        33 1.00000E+00 0.00000E+00 5.00000E-01
 -1        34 1.00000E+00 0.00000E+00 1.00000E+00
 -1        35 1.00000E+00 0.00000E+00 1.50000E+00
 -1        36 1.00000E+00 0.00000E+00 2.00000E+00
 -1        37 1.00000E+00 0.00000E+00 2.50000E+00
 -1        38 1.00000E+00 0.00000E+00 3.00000E+00
 -1        39 1.00000E+00 0.00000E+00 3.50000E+00
 -1        40 1.00000E+00 0.00000E+00 4.00000E+00
 -1        41 1.00000E+00 0.00000E+00 4.50000E+00
 -1        42 1.00000E+00 0.00000E+00 5.00000E+00
 -1        43 1.00000E+00 0.00000E+00 5.50000E+00
 -1        44 1.00000E+00 0.00000E+00 6.00000E+00
 -1        51 0.00000E+00 0.00000E+00 6.00000E+00
 -1        52 0.00000E+00 0.00000E+00 5.50000E+00
 -1        53 0.00000E+00 0.00000E+00 5.00000E+00
 -1        54 0.00000E+00 0.00000E+00 4.50000E+00
 -1        55 0.00000E+00 0.00000E+00 4.00000E+00
 -1        56 0.00000E+00 0.00000E+00 3.50000E+00
 -1        57 0.00000E+00 0.00000E+00 3.00000E+00
 -1        58 0.00000E+00 0.00000E+00 2.50000E+00
 -1        59 0.00000E+00 0.00000E+00 2.00000E+00
 -1        60 0.00000E+00 0.00000E+00 1.50000E+00
 -1        61 0.00000E+00 0.00000E+00 1.00000E+00
 -1        62 0.00000E+00 0.00000E+00 5.00000E-01
 -1        63 1.00000E+00 1.00000E+00 5.00000E-01
 -1        64 1.00000E+00 1.00000E+00 1.00000E+00
 -1        65 1.00000E+00 1.00000E+00 1.50000E+00
 -1        66 1.00000E+00 1.00000E+00 2.00000E+00
 -1        67 1.00000E+00 1.00000E+00 2.50000E+00
 -1        68 1.00000E+00 1.00000E+00 3.00000E+00
 -1        69 1.00000E+00 1.00000E+00 3.50000E+00
 -1        70 1.00000E+00 1.00000E+00 4.00000E+00
 -1        71 1.00000E+00 1.00000E+00 4.50000E+00
 -1        72 1.00000E+00 1.00000E+00 5.00000E+00
 -1        73 1.00000E+00 1.00000E+00 5.50000E+00
 -1        74 1.00000E+00 1.00000E+00 6.00000E+00
 -1        78 0.00000E+00 1.00000E+00 5.00000E-01
 -1        79 0.00000E+00 1.00000E+00 1.00000E+00
 -1        80 0.00000E+00 1.00000E+00 1.50000E+00
 -1        81 0.00000E+00 1.00000E+00 2.00000E+00
 -1        82 0.00000E+00 1.00000E+00 2.50000E+00
 -1        83 0.00000E+00 1.00000E+00 3.00000E+00
 -1        84 0.00000E+00 1.00000E+00 3.50000E+00
 -1        85 0.00000E+00 1.00000E+00 4.00000E+00
 -1        86 0.00000E+00 1.00000E+00 4.50000E+00
 -1        87 0.00000E+00 1.00000E+00 5.00000E+00
 -1        88 0.00000E+00 1.00000E+00 5.50000E+00
 -1        89 0.00000E+00 1.00000E+00 6.00000E+00
 -1        93 5.00000E-01 2.50000E-01 0.00000E+00
 -1        94 2.50000E-01 5.00000E-01 0.00000E+00
 -1        95 5.00000E-01 5.00000E-01 0.00000E+00
 -1        96 7.50000E-01 5.00000E-01 0.00000E+00
 -1        97 5.00000E-01 7.50000E-01 0.00000E+00
 -1       103 5.00000E-01 0.00000E+00 5.00000E-01
 -1       104 2.50000E-01 0.00000E+00 1.00000E+00
 -1       105 5.00000E-01 0.00000E+00 1.00000E+00
 -1       106 7.50000E-01 0.00000E+00 1.00000E+00
 -1       107 5.00000E-01 0.00000E+00 1.50000E+00
 -1       108 2.50000E-01 0.00000E+00 2.00000E+00
 -1       109 5.00000E-01 0.00000E+00 2.00000E+00
 -1       110 7.50000E-01 0.00000E+00 2.00000E+00
 -1       111 5.00000E-01 0.00000E+00 2.50000E+00
 -1       112 2.50000E-01 0.00000E+00 3.00000E+00
 -1       113 5.00000E-01 0.00000E+00 3.00000E+00
 -1       114 7.50000E-01 0.00000E+00 3.00000E+00
 -1       115 5.00000E-01 0.00000E+00 3.50000E+00
 -1       116 2.50000E-01 0.00000E+00 4.00000E+00
 -1       117 5.00000E-01 0.00000E+00 4.00000E+00
 -1       118 7.50000E-01 0.00000E+00 4.00000E+00
 -1       119 5.00000E-01 0.00000E+00 4.50000E+00
 -1       120 2.50000E-01 0.00000E+00 5.00000E+00
 -1       121 5.00000E-01 0.00000E+00 5.00000E+00
 -1       122 7.50000E-01 0.00000E+00 5.00000E+00
 -1       123 5.00000E-01 0.00000E+00 5.50000E+00
 -1       124 2.50000E-01 0.00000E+00 6.00000E+00
 -1       125 5.00000E-01 0.00000E+00 6.00000E+00
 -1       126 7.50000E-01 0.00000E+00 6.00000E+00
 -1       132 1.00000E+00 5.00000E-01 5.00000E-01
 -1       133 1.00000E+00 2.50000E-01 1.00000E+00
 -1       134 1.00000E+00 5.00000E-01 1.00000E+00
 -1       135 1.00000E+00 7.50000E-01 1.00000E+00
 -1       136 1.00000E+00 5.00000E-01 1.50000E+00
 -1       137 1.00000E+00 2.50000E-01 2.00000E+00
 -1       138 1.00000E+00 5.00000E-01 2.00000E+00
 -1       139 1.00000E+00 7.50000E-01 2.00000E+00
 -1       140 1.00000E+00 5.00000E-01 2.50000E+00
 -1       141 1.00000E+00 2.50000E-01 3.00000E+00
 -1       142 1.00000E+00 5.00000E-01 3.00000E+00
 -1       143 1.00000E+00 7.50000E-01 3.00000E+00
 -1       144 1.00000E+00 5.00000E-01 3.50000E+00
 -1       145 1.00000E+00 2.50000E-01 4.00000E+00
 -1       146 1.00000E+00 5.00000E-01 4.00000E+00
 -1       147 1.00000E+00 7.50000E-01 4.00000E+00
 -1       148 1.00000E+00 5.00000E-01 4.50000E+00
 -1       149 1.00000E+00 2.50000E-01 5.00000E+00
 -1       150 1.00000E+00 5.00000E-01 5.00000E+00
 -1       151 1.00000E+00 7.50000E-01 5.00000E+00
 -1       152 1.00000E+00 5.00000E-01 5.50000E+00
 -1       153 1.00000E+00 2.50000E-01 6.00000E+00
 -1       154 1.00000E+00 5.00000E-01 6.00000E+00
 -1       155 1.00000E+00 7.50000E-01 6.00000E+00
 -1       161 5.00000E-01 1.00000E+00 5.00000E-01
 -1       162 7.50000E-01 1.00000E+00 1.00000E+00
 -1       163 5.00000E-01 1.00000E+00 1.00000E+00
 -1       164 2.50000E-01 1.00000E+00 1.00000E+00
 -1       165 5.00000E-01 1.00000E+00 1.50000E+00
 -1       166 7.50000E-01 1.00000E+00 2.00000E+00
 -1       167 5.00000E-01 1.00000E+00 2.00000E+00
 -1       168 2.50000E-01 1.00000E+00 2.00000E+00
 -1       169 5.00000E-01 1.00000E+00 2.50000E+00
 -1       170 7.50000E-01 1.00000E+00 3.00000E+00
 -1       171 5.00000E-01 1.00000E+00 3.00000E+00
 -1       172 2.50000E-01 1.00000E+00 3.00000E+00
 -1       173 5.00000E-01 1.00000E+00 3.50000E+00
 -1       174 7.50000E-01 1.00000E+00 4.00000E+00
 -1       175 5.00000E-01 1.00000E+00 4.00000E+00
 -1       176 2.50000E-01 1.00000E+00 4.00000E+00
 -1       177 5.00000E-01 1.00000E+00 4.50000E+00
 -1       178 7.50000E-01 1.00000E+00 5.00000E+00
 -1       179 5.00000E-01 1.00000E+00 5.00000E+00
 -1       180 2.50000E-01 1.00000E+00 5.00000E+00
 -1       181 5.00000E-01 1.00000E+00 5.50000E+00
 -1       182 7.50000E-01 1.00000E+00 6.00000E+00
 -1       183 5.00000E-01 1.00000E+00 6.00000E+00
 -1       184 2.50000E-01 1.00000E+00 6.00000E+00
 -1       190 0.00000E+00 5.00000E-01 5.00000E-01
 -1       191 0.00000E+00 7.50000E-01 1.00000E+00
 -1       192 0.00000E+00 5.00000E-01 1.00000E+00
 -1       193 0.00000E+00 2.50000E-01 1.00000E+00
 -1       194 0.00000E+00 5.00000E-01 1.50000E+00
 -1       195 0.00000E+00 7.50000E-01 2.00000E+00
 -1       196 0.00000E+00 5.00000E-01 2.00000E+00
 -1       197 0.00000E+00 2.50000E-01 2.00000E+00
 -1       198 0.00000E+00 5.00000E-01 2.50000E+00
 -1       199 0.00000E+00 7.50000E-01 3.00000E+00
 -1       200 0.00000E+00 5.00000E-01 3.00000E+00
 -1       201 0.00000E+00 2.50000E-01 3.00000E+00
 -1       202 0.00000E+00 5.00000E-01 3.50000E+00
 -1       203 0.00000E+00 7.50000E-01 4.00000E+00
 -1       204 0.00000E+00 5.00000E-01 4.00000E+00
 -1       205 0.00000E+00 2.50000E-01 4.00000E+00
 -1       206 0.00000E+00 5.00000E-01 4.50000E+00
 -1       207 0.00000E+00 7.50000E-01 5.00000E+00
 -1       208 0.00000E+00 5.00000E-01 5.00000E+00
 -1       209 0.00000E+00 2.50000E-01 5.00000E+00
 -1       210 0.00000E+00 5.00000E-01 5.50000E+00
 -1       211 0.00000E+00 7.50000E-01 6.00000E+00
 -1       212 0.00000E+00 5.00000E-01 6.00000E+00
 -1       213 0.00000E+00 2.50000E-01 6.00000E+00
 -1       219 5.00000E-01 5.00000E-01 5.00000E-01
 -1       220 5.00000E-01 2.50000E-01 1.00000E+00
 -1       221 2.50000E-01 5.00000E-01 1.00000E+00
 -1       222 5.00000E-01 5.00000E-01 1.00000E+00
 -1       223 7.50000E-01 5.00000E-01 1.00000E+00
 -1       224 5.00000E-01 7.50000E-01 1.00000E+00
 -1       225 5.00000E-01 5.00000E-01 1.50000E+00
 -1       226 5.00000E-01 2.50000E-01 2.00000E+00
 -1       227 2.50000E-01 5.00000E-01 2.00000E+00
 -1       228 5.00000E-01 5.00000E-01 2.00000E+00
 -1       229 7.50000E-01 5.00000E-01 2.00000E+00
 -1       230 5.00000E-01 7.50000E-01 2.00000E+00
 -1       231 5.00000E-01 5.00000E-01 2.50000E+00
 -1       232 5.00000E-01 2.50000E-01 3.00000E+00
 -1       233 2.50000E-01 5.00000E-01 3.00000E+00
 -1       234 5.00000E-01 5.00000E-01 3.00000E+00
 -1       235 7.50000E-01 5.00000E-01 3.00000E+00
 -1       236 5.00000E-01 7.50000E-01 3.00000E+00
 -1       237 5.00000E-01 5.00000E-01 3.50000E+00
 -1       238 5.00000E-01 2.50000E-01 4.00000E+00
 -1       239 2.50000E-01 5.00000E-01 4.00000E+00
 -1       240 5.00000E-01 5.00000E-01 4.00000E+00
 -1       241 7.50000E-01 5.00000E-01 4.00000E+00
 -1       242 5.00000E-01 7.50000E-01 4.00000E+00
 -1       243 5.00000E-01 5.00000E-01 4.50000E+00
 -1       244 5.00000E-01 2.50000E-01 5.00000E+00
 -1       245 2.50000E-01 5.00000E-01 5.00000E+00
 -1       246 5.00000E-01 5.00000E-01 5.00000E+00
 -1       247 7.50000E-01 5.00000E-01 5.00000E+00
 -1       248 5.00000E-01 7.50000E-01 5.00000E+00
 -1       249 5.00000E-01 5.00000E-01 5.50000E+00
 -1       250 5.00000E-01 2.50000E-01 6.00000E+00
 -1       251 2.50000E-01 5.00000E-01 6.00000E+00
 -1       252 5.00000E-01 5.00000E-01 6.00000E+00
 -1       253 7.50000E-01 5.00000E-01 6.00000E+00
 -1       254 5.00000E-01 7.50000E-01 6.00000E+00
 -3
    3C                            24                                     1
 -1         1    4    0    1
 -2         1        10        95        19        61       105       222       192         9        93
 -2        94        20        62       103       219       190       104       220       221       193
 -1         2    4    0    1
 -2        10         2        13        95       105        34       134       222        11        12
 -2        96        93       103        33       132       219       106       133       223       220
 -1         3    4    0    1
 -2        19        95        16         4       192       222       163        79        94        97
 -2        17        18       190       219       161        78       221       224       164       191
 -1         4    4    0    1
 -2        95        13         3        16       222       134        64       163        96        14
 -2        15        97       219       132        63       161       223       135       162       224
 -1         5    4    0    1
 -2        61       105       222       192        59       109       228       196       104       220
 -2       221       193        60       107       225       194       108       226       227       197
 -1         6    4    0    1
 -2       105        34       134       222       109        36       138       228       106       133
 -2       223       220       107        35       136       225       110       137       229       226
 -1         7    4    0    1
 -2       192       222       163        79       196       228       167        81       221       224
 -2       164       191       194       225       165        80       227       230       168       195
 -1         8    4    0    1
 -2       222       134        64       163       228       138        66       167       223       135
 -2       162       224       225       136        65       165       229       139       166       230
 -1         9    4    0    1
 -2        59       109       228       196        57       113       234       200       108       226
 -2       227       197        58       111       231       198       112       232       233       201
 -1        10    4    0    1
 -2       109        36       138       228       113        38       142       234       110       137
 -2       229       226       111        37       140       231       114       141       235       232
 -1        11    4    0    1
 -2       196       228       167        81       200       234       171        83       227       230
 -2       168       195       198       231       169        82       233       236       172       199
 -1        12    4    0    1
 -2       228       138        66       167       234       142        68       171       229       139
 -2       166       230       231       140        67       169       235       143       170       236
 -1        13    4    0    1
 -2        57       113       234       200        55       117       240       204       112       232
 -2       233       201        56       115       237       202       116       238       239       205
 -1        14    4    0    1
 -2       113        38       142       234       117        40       146       240       114       141
 -2       235       232       115        39       144       237       118       145       241       238
 -1        15    4    0    1
 -2       200       234       171        83       204       240       175        85       233       236
 -2       172       199       202       237       173        84       239       242       176       203
 -1        16    4    0    1
 -2       234       142        68       171       240       146        70       175       235       143
 -2       170       236       237       144        69       173       241       147       174       242
 -1        17    4    0    1
 -2        55       117       240       204        53       121       246       208       116       238
 -2       239       205        54       119       243       206       120       244       245       209
 -1        18    4    0    1
 -2       117        40       146       240       121        42       150       246       118       145
 -2       241       238       119        41       148       243       122       149       247       244
 -1        19    4    0    1
 -2       204       240       175        85       208       246       179        87       239       242
 -2       176       203       206       243       177        86       245       248       180       207
 -1        20    4    0    1
 -2       240       146        70       175       246       150        72       179       241       147
 -2       174       242       243       148        71       177       247       151       178       248
 -1        21    4    0    1
 -2        53       121       246       208        51       125       252       212       120       244
 -2       245       209        52       123       249       210       124       250       251       213
 -1        22    4    0    1
 -2       121        42       150       246       125        44       154       252       122       149
 -2       247       244       123        43       152       249       126       153       253       250
 -1        23    4    0    1
 -2       208       246       179        87       212       252       183        89       245       248
 -2       180       207       210       249       181        88       251       254       184       211
 -1        24    4    0    1
 -2       246       150        72       179       252       154        74       183       247       151
 -2       178       248       249       152        73       181       253       155       182       254
 -3
    1PSTEP                         1           1           1          
  100CL  101 5.00000E-03         201                     1    1           1
 -4  DISP        4    1
 -5  D1          1    2    1    0
 -5  D2          1    2    2    0
 -5  D3          1    2    3    0
 -5  ALL         1    2    0    0    1ALL
 -1         1 0.00000E+00 0.00000E+00 0.00000E+00
 -1         2 0.00000E+00 0.00000E+00 0.00000E+00
 -1         3 0.00000E+00 0.00000E+00 0.00000E+00
 -1         4 0.00000E+00 0.00000E+00 0.00000E+00
 -1         9 0.00000E+00 0.00000E+00 0.00000E+00
 -1        10 0.00000E+00 0.00000E+00 0.00000E+00
 -1        11 0.00000E+00 0.00000E+00 0.00000E+00
 -1        12 0.00000E+00 0.00000E+00 0.00000E+00
 -1        13 0.00000E+00 0.00000E+00 0.00000E+00
 -1        14 0.00000E+00 0.00000E+00 0.00000E+00
 -1        15 0.00000E+00 0.00000E+00 0.00000E+00
 -1        16 0.00000E+00 0.00000E+00 0.00000E+00
 -1        17 0.00000E+00 0.00000E+00 0.00000E+00
 -1        18 0.00000E+00 0.00000E+00 0.00000E+00
 -1        19 0.00000E+00 0.00000E+00 0.00000E+00
 -1        20 0.00000E+00 0.00000E+00 0.00000E+00
 -1        33 6.38403E-07-1.55684E-06-2.04552E-06
 -1        34 3.13350E-07-4.82012E-06-3.74475E-06
 -1        35 2.57648E-07-9.71056E-06-4.84067E-06
 -1        36 8.14888E-08-1.52880E-05-5.41135E-06
 -1        37-5.18236E-08-2.11253E-05-5.47988E-06
 -1        38-2.11474E-07-2.69558E-05-5.19332E-06
 -1        39-4.25813E-07-3.19666E-05-3.84958E-06
 -1        40-4.31432E-07-3.54470E-05-2.09798E-06
 -1        41-4.43725E-07-3.58252E-05-6.40996E-07
 -1        42-6.16208E-07-3.74246E-05-1.48314E-06
 -1        43 6.21837E-07-3.47386E-05 8.57473E-07
 -1        44-5.99296E-07-3.46555E-05 4.48576E-06
 -1        51 5.99044E-07-3.46556E-05 4.48594E-06
 -1        52-6.22182E-07-3.47386E-05 8.57598E-07
 -1        53 6.15742E-07-3.74246E-05-1.48311E-06
 -1        54 4.43293E-07-3.58252E-05-6.40990E-07
 -1        55 4.30991E-07-3.54470E-05-2.09800E-06
 -1        56 4.25420E-07-3.19666E-05-3.84962E-06
 -1        57 2.11131E-07-2.69558E-05-5.19338E-06
 -1        58 5.15546E-08-2.11253E-05-5.47995E-06
 -1        59-8.16863E-08-1.52880E-05-5.41142E-06
 -1        60-2.57774E-07-9.71056E-06-4.84073E-06
 -1        61-3.13413E-07-4.82012E-06-3.74479E-06
 -1        62-6.38424E-07-1.55685E-06-2.04555E-06
 -1        63-6.26625E-07-1.53950E-06 2.01111E-06
 -1        64-3.11756E-07-4.81449E-06 3.67093E-06
 -1        65-2.34323E-07-9.70585E-06 4.73728E-06
 -1        66-7.94822E-08-1.53529E-05 5.27373E-06
 -1        67 5.00708E-08-2.10279E-05 5.31010E-06
 -1        68 1.46107E-07-2.69611E-05 4.94091E-06
 -1        69 5.86045E-07-3.20727E-05 3.58257E-06
 -1        70 6.58831E-07-3.63594E-05 1.84584E-06
 -1        71-5.29795E-08-3.46049E-05 3.34146E-07
 -1        72-1.04027E-06-3.48000E-05 7.90697E-07
 -1        73 2.01930E-06-3.88860E-05-1.68833E-06
 -1        74 3.16961E-06-4.41118E-05-4.94962E-06
 -1        78 6.26606E-07-1.53949E-06 2.01108E-06
 -1        79 3.11697E-07-4.81448E-06 3.67088E-06
 -1        80 2.34204E-07-9.70585E-06 4.73722E-06
 -1        81 7.92936E-08-1.53529E-05 5.27367E-06
 -1        82-5.03284E-08-2.10279E-05 5.31004E-06
 -1        83-1.46437E-07-2.69611E-05 4.94086E-06
 -1        84-5.86422E-07-3.20727E-05 3.58254E-06
 -1        85-6.59255E-07-3.63593E-05 1.84582E-06
 -1        86 5.25682E-08-3.46049E-05 3.34152E-07
 -1        87 1.03982E-06-3.48000E-05 7.90724E-07
 -1        88-2.01961E-06-3.88860E-05-1.68820E-06
 -1        89-3.16985E-06-4.41117E-05-4.94943E-06
 -1        93 0.00000E+00 0.00000E+00 0.00000E+00
 -1        94 0.00000E+00 0.00000E+00 0.00000E+00
 -1        95 0.00000E+00 0.00000E+00 0.00000E+00
 -1        96 0.00000E+00 0.00000E+00 0.00000E+00
 -1        97 0.00000E+00 0.00000E+00 0.00000E+00
 -1       103-8.20144E-12-1.81970E-06-2.00759E-06
 -1       104-1.56326E-07-5.01438E-06-3.80393E-06
 -1       105-3.12590E-11-5.03961E-06-3.83034E-06
 -1       106 1.56264E-07-5.01438E-06-3.80391E-06
 -1       107-6.21145E-11-9.81159E-06-4.86797E-06
 -1       108-3.30762E-08-1.53100E-05-5.44846E-06
 -1       109-9.77281E-11-1.54163E-05-5.43770E-06
 -1       110 3.28799E-08-1.53100E-05-5.44843E-06
 -1       111-1.35846E-10-2.10370E-05-5.51772E-06
 -1       112 7.47113E-08-2.71961E-05-5.21493E-06
 -1       113-1.68711E-10-2.71282E-05-5.23085E-06
 -1       114-7.50525E-08-2.71961E-05-5.21491E-06
 -1       115-2.00274E-10-3.15846E-05-3.93521E-06
 -1       116 3.31145E-07-3.52119E-05-2.04167E-06
 -1       117-2.11625E-10-3.64356E-05-1.83253E-06
 -1       118-3.31577E-07-3.52119E-05-2.04166E-06
 -1       119-2.28597E-10-3.55589E-05-6.58928E-07
 -1       120-7.30384E-08-3.91268E-05-1.12915E-06
 -1       121-2.02474E-10-3.76636E-05-1.17881E-06
 -1       122 7.25973E-08-3.91268E-05-1.12918E-06
 -1       123-1.91067E-10-3.48511E-05-2.57229E-07
 -1       124 1.50493E-06-2.96689E-05 4.29754E-06
 -1       125-5.23497E-11-3.59030E-05 4.48745E-06
 -1       126-1.50510E-06-2.96689E-05 4.29751E-06
 -1       132 7.17794E-09-1.18699E-06-1.60171E-08
 -1       133 1.61356E-07-4.69741E-06-1.78053E-06
 -1       134 8.88176E-09-4.74450E-06-2.88217E-08
 -1       135-1.54008E-07-4.69846E-06 1.71224E-06
 -1       136-1.67917E-09-9.53523E-06-5.58427E-08
 -1       137 4.80009E-08-1.52689E-05-2.68693E-06
 -1       138 5.07659E-09-1.51907E-05-7.36178E-08
 -1       139-3.67480E-08-1.52858E-05 2.55233E-06
 -1       140 1.68441E-08-2.12665E-05-9.19731E-08
 -1       141-1.04714E-07-2.68099E-05-2.44416E-06
 -1       142 5.51542E-08-2.68749E-05-5.13603E-08
 -1       143 1.12846E-07-2.68718E-05 2.24226E-06
 -1       144-8.90192E-08-3.22080E-05-1.27149E-07
 -1       145-2.03510E-07-3.56372E-05-1.32141E-06
 -1       146-1.30045E-07-3.46665E-05-2.47982E-07
 -1       147 1.81635E-07-3.58786E-05 1.00765E-06
 -1       148 2.70353E-07-3.68283E-05-2.37534E-07
 -1       149-3.28014E-07-3.42318E-05-4.69125E-07
 -1       150 8.51795E-07-3.45022E-05-2.07135E-08
 -1       151 2.82594E-07-3.35562E-05-1.11677E-09
 -1       152-1.26842E-06-3.72308E-05 1.15660E-07
 -1       153 6.94685E-07-3.63761E-05 1.91176E-06
 -1       154-1.20495E-06-2.50390E-05-2.09091E-07
 -1       155-6.47862E-07-3.89002E-05-2.38200E-06
 -1       161-7.13598E-12-1.80762E-06 1.97025E-06
 -1       162-1.53766E-07-5.00793E-06 3.73638E-06
 -1       163-2.90320E-11-5.01505E-06 3.75809E-06
 -1       164 1.53708E-07-5.00793E-06 3.73635E-06
 -1       165-5.87562E-11-9.81217E-06 4.76717E-06
 -1       166-3.95798E-08-1.52835E-05 5.30715E-06
 -1       167-9.31204E-11-1.53757E-05 5.32939E-06
 -1       168 3.93925E-08-1.52835E-05 5.30711E-06
 -1       169-1.30184E-10-2.10456E-05 5.30994E-06
 -1       170 7.50552E-08-2.71951E-05 5.01415E-06
 -1       171-1.61640E-10-2.68148E-05 4.97001E-06
 -1       172-7.53825E-08-2.71951E-05 5.01412E-06
 -1       173-1.92357E-10-3.17910E-05 3.69096E-06
 -1       174 3.14627E-07-3.46285E-05 1.71081E-06
 -1       175-2.02418E-10-3.56280E-05 1.72667E-06
 -1       176-3.15041E-07-3.46285E-05 1.71079E-06
 -1       177-2.18714E-10-3.51287E-05 2.07354E-07
 -1       178-4.47047E-07-4.00975E-05 7.15655E-07
 -1       179-1.90199E-10-3.58043E-05 4.82066E-07
 -1       180 4.46629E-07-4.00974E-05 7.15685E-07
 -1       181-1.79596E-10-3.68512E-05-6.04237E-07
 -1       182 1.14681E-06-2.56405E-05-4.71476E-06
 -1       183-3.99342E-11-4.35620E-05-4.76801E-06
 -1       184-1.14695E-06-2.56404E-05-4.71473E-06
 -1       190-7.20097E-09-1.18699E-06-1.60421E-08
 -1       191 1.53945E-07-4.69846E-06 1.71219E-06
 -1       192-8.94660E-09-4.74450E-06-2.88695E-08
 -1       193-1.61422E-07-4.69741E-06-1.78058E-06
 -1       194 1.55601E-09-9.53522E-06-5.59022E-08
 -1       195 3.65557E-08-1.52858E-05 2.55227E-06
 -1       196-5.27254E-09-1.51907E-05-7.36846E-08
 -1       197-4.81977E-08-1.52689E-05-2.68699E-06
 -1       198-1.71047E-08-2.12665E-05-9.20380E-08
 -1       199-1.13180E-07-2.68718E-05 2.24220E-06
 -1       200-5.54945E-08-2.68749E-05-5.14210E-08
 -1       201 1.04373E-07-2.68099E-05-2.44422E-06
 -1       202 8.86402E-08-3.22080E-05-1.27185E-07
 -1       203-1.82069E-07-3.58786E-05 1.00763E-06
 -1       204 1.29600E-07-3.46665E-05-2.47999E-07
 -1       205 2.03067E-07-3.56372E-05-1.32143E-06
 -1       206-2.70755E-07-3.68283E-05-2.37531E-07
 -1       207-2.83055E-07-3.35562E-05-1.09563E-09
 -1       208-8.52281E-07-3.45021E-05-2.07169E-08
 -1       209 3.27543E-07-3.42318E-05-4.69107E-07
 -1       210 1.26811E-06-3.72308E-05 1.15819E-07
 -1       211 6.47544E-07-3.89002E-05-2.38182E-06
 -1       212 1.20456E-06-2.50390E-05-2.08860E-07
 -1       213-6.95015E-07-3.63761E-05 1.91195E-06
 -1       219-9.34643E-12-1.44483E-06-1.43187E-08
 -1       220-3.15235E-11-4.89571E-06-1.83708E-06
 -1       221-4.18983E-09-4.91098E-06-3.64453E-08
 -1       222-3.08673E-11-4.92505E-06-3.80844E-08
 -1       223 4.12747E-09-4.91098E-06-3.64227E-08
 -1       224-3.04100E-11-4.88195E-06 1.76729E-06
 -1       225-6.14481E-11-9.65682E-06-5.14055E-08
 -1       226-9.60906E-11-1.53442E-05-2.72989E-06
 -1       227-3.75734E-09-1.52031E-05-6.88467E-08
 -1       228-9.44422E-11-1.52219E-05-8.46512E-08
 -1       229 3.56518E-09-1.52031E-05-6.88138E-08
 -1       230-9.37850E-11-1.53278E-05 2.57758E-06
 -1       231-1.33532E-10-2.12523E-05-7.49429E-08
 -1       232-1.64830E-10-2.68898E-05-2.49460E-06
 -1       233-2.23904E-08-2.68476E-05-1.27303E-07
 -1       234-1.61398E-10-2.68190E-05-1.40153E-07
 -1       235 2.20575E-08-2.68476E-05-1.27275E-07
 -1       236-1.61304E-10-2.67178E-05 2.27161E-06
 -1       237-1.96679E-10-3.19310E-05-9.37859E-08
 -1       238-2.04480E-10-3.61244E-05-1.24143E-06
 -1       239 5.74897E-08-3.45449E-05-1.44230E-07
 -1       240-1.98372E-10-3.47854E-05-2.00833E-07
 -1       241-5.79087E-08-3.45449E-05-1.44214E-07
 -1       242-1.99858E-10-3.57513E-05 8.83982E-07
 -1       243-2.26937E-10-3.65705E-05-2.12768E-07
 -1       244-1.89860E-10-3.52224E-05-2.06160E-07
 -1       245-3.37812E-07-3.61306E-05-2.62681E-07
 -1       246-1.78505E-10-3.65328E-05-1.98652E-07
 -1       247 3.37382E-07-3.61306E-05-2.62718E-07
 -1       248-1.83746E-10-3.43812E-05-1.00401E-07
 -1       249-1.90872E-10-3.52377E-05-1.34930E-07
 -1       250-3.51954E-11-4.08209E-05 1.74620E-06
 -1       251 3.03314E-07-2.57258E-05-1.03965E-07
 -1       252-2.11833E-11-3.12481E-05-1.55413E-07
 -1       253-3.03513E-07-2.57258E-05-1.03936E-07
 -1       254-2.88431E-11-4.41409E-05-2.54303E-06
 -3
    1PSTEP                         2           2           1          
  100CL  102 1.00000E-02         201                     1    2           1
 -4  DISP        4    1
 -5  D1          1    2    1    0
 -5  D2          1    2    2    0
 -5  D3          1    2    3    0
 -5  ALL         1    2    0    0    1ALL
 -1         1 0.00000E+00 0.00000E+00 0.00000E+00
 -1         2 0.00000E+00 0.00000E+00 0.00000E+00
 -1         3 0.00000E+00 0.00000E+00 0.00000E+00
 -1         4 0.00000E+00 0.00000E+00 0.00000E+00
 -1         9 0.00000E+00 0.00000E+00 0.00000E+00
 -1        10 0.00000E+00 0.00000E+00 0.00000E+00
 -1        11 0.00000E+00 0.00000E+00 0.00000E+00
 -1        12 0.00000E+00 0.00000E+00 0.00000E+00
 -1        13 0.00000E+00 0.00000E+00 0.00000E+00
 -1        14 0.00000E+00 0.00000E+00 0.00000E+00
 -1        15 0.00000E+00 0.00000E+00 0.00000E+00
 -1        16 0.00000E+00 0.00000E+00 0.00000E+00
 -1        17 0.00000E+00 0.00000E+00 0.00000E+00
 -1        18 0.00000E+00 0.00000E+00 0.00000E+00
 -1        19 0.00000E+00 0.00000E+00 0.00000E+00
 -1        20 0.00000E+00 0.00000E+00 0.00000E+00
 -1        33-3.19928E-07 7.91872E-07 1.03017E-06
 -1        34-1.54732E-07 2.44854E-06 1.87758E-06
 -1        35-1.27479E-07 4.92612E-06 2.42747E-06
 -1        36-4.51681E-08 7.74394E-06 2.70077E-06
 -1        37 4.39584E-08 1.07205E-05 2.71888E-06
 -1        38 1.36544E-07 1.36796E-05 2.50351E-06
 -1        39 2.05932E-07 1.60880E-05 1.85227E-06
 -1        40 1.35637E-07 1.78304E-05 9.23849E-07
 -1        41 3.60189E-07 1.81873E-05 2.08359E-07
 -1        42 4.68693E-07 1.87514E-05 1.11099E-07
 -1        43-4.21687E-07 1.69301E-05-7.83873E-07
 -1        44-1.58752E-06 1.59935E-05-2.33981E-06
 -1        51 1.58805E-06 1.59929E-05-2.34004E-06
 -1        52 4.23146E-07 1.69299E-05-7.83853E-07
 -1        53-4.67426E-07 1.87507E-05 1.10822E-07
 -1        54-3.58743E-07 1.81872E-05 2.08355E-07
 -1        55-1.34401E-07 1.78301E-05 9.23873E-07
 -1        56-2.04687E-07 1.60879E-05 1.85240E-06
 -1        57-1.35543E-07 1.36794E-05 2.50364E-06
 -1        58-4.31198E-08 1.07204E-05 2.71905E-06
 -1        59 4.57579E-08 7.74382E-06 2.70094E-06
 -1        60 1.27883E-07 4.92606E-06 2.42763E-06
 -1        61 1.54935E-07 2.44850E-06 1.87770E-06
 -1        62 3.20004E-07 7.91873E-07 1.03024E-06
 -1        63 3.19979E-07 7.91756E-07-1.03007E-06
 -1        64 1.54970E-07 2.44845E-06-1.87733E-06
 -1        65 1.27460E-07 4.92631E-06-2.42710E-06
 -1        66 4.52610E-08 7.74459E-06-2.70024E-06
 -1        67-4.23057E-08 1.07192E-05-2.71819E-06
 -1        68-1.33408E-07 1.36780E-05-2.50245E-06
 -1        69-2.09552E-07 1.60921E-05-1.85107E-06
 -1        70-1.43094E-07 1.78413E-05-9.22498E-07
 -1        71-3.41251E-07 1.81673E-05-2.06574E-07
 -1        72-4.22367E-07 1.87045E-05-1.07974E-07
 -1        73 3.44290E-07 1.70116E-05 7.87387E-07
 -1        74 1.45593E-06 1.61445E-05 2.34259E-06
 -1        78-3.19949E-07 7.91715E-07-1.03000E-06