    1C
    1UUSER                                                              
    1UDATE              18.july.2018                                    
    1UTIME              00:13:09                                        
    1UHOST                                                              
    1UPGM               CalculiX                                        
    1UVERSION           Version 2.13                             
    1UCOMPILETIME       jue jun 14 00:40:39 CEST 2018                    
    1UDIR                                                               
    1UDBN                                                               
    1UMAT    1EL                                                        
    2C                           201                                     1
 -1         1 0.00000E+00 0.00000E+00 0.00000E+00
 -1         2 1.00000E+00 0.00000E+00 0.00000E+00
 -1         3 1.00000E+00 1.00000E+00 0.00000E+00
 -1         4 0.00000E+00 1.00000E+00 0.00000E+00
 -1         9 2.50000E-01 0.00000E+00 0.00000E+00
 -1        10 5.00000E-01 0.00000E+00 0.00000E+00
 -1        11 7.50000E-01 0.00000E+00 0.00000E+00
 -1        12 1.00000E+00 2.50000E-01 0.00000E+00
 -1        13 1.00000E+00 5.00000E-01 0.00000E+00
 -1        14 1.00000E+00 7.50000E-01 0.00000E+00
 -1        15 7.50000E-01 1.00000E+00 0.00000E+00
 -1        16 5.00000E-01 1.00000E+00 0.00000E+00
 -1        17 2.50000E-01 1.00000E+00 0.00000E+00
 -1        18 0.00000E+00 7.50000E-01 0.00000E+00
 -1        19 0.00000E+00 5.00000E-01 0.00000E+00
 -1        20 0.00000E+00 2.50000E-01 0.00000E+00
 -1        33 1.00000E+00 0.00000E+00 5.00000E-01
 -1        34 1.00000E+00 0.00000E+00 1.00000E+00
 -1        35 1.00000E+00 0.00000E+00 1.50000E+00
 -1        36 1.00000E+00 0.00000E+00 2.00000E+00
 -1        37 1.00000E+00 0.00000E+00 2.50000E+00
 -1        38 1.00000E+00 0.00000E+00 3.00000E+00
 -1        39 1.00000E+00 0.00000E+00 3.50000E+00
 -1        40 1.00000E+00 0.00000E+00 4.00000E+00
 -1        41 1.00000E+00 0.00000E+00 4.50000E+00
 -1        42 1.00000E+00 0.00000E+00 5.00000E+00
 -1        43 1.00000E+00 0.00000E+00 5.50000E+00
 -1        44 1.00000E+00 0.00000E+00 6.00000E+00
 -1        51 0.00000E+00 0.00000E+00 6.00000E+00
 -1        52 0.00000E+00 0.00000E+00 5.50000E+00
 -1        53 0.00000E+00 0.00000E+00 5.00000E+00
 -1        54 0.00000E+00 0.00000E+00 4.50000E+00
 -1        55 0.00000E+00 0.00000E+00 4.00000E+00
 -1        56 0.00000E+00 0.00000E+00 3.50000E+00
 -1        57 0.00000E+00 0.00000E+00 3.00000E+00
 -1        58 0.00000E+00 0.00000E+00 2.50000E+00
 -1        59 0.00000E+00 0.00000E+00 2.00000E+00
 -1        60 0.00000E+00 0.00000E+00 1.50000E+00
 -1        61 0.00000E+00 0.00000E+00 1.00000E+00
 -1        62 0.00000E+00 0.00000E+00 5.00000E-01
 -1        63 1.00000E+00 1.00000E+00 5.00000E-01
 -1        64 1.00000E+00 1.00000E+00 1.00000E+00
 -1        65 1.00000E+00 1.00000E+00 1.50000E+00
 -1        66 1.00000E+00 1.00000E+00 2.00000E+00
 -1        67 1.00000E+00 1.00000E+00 2.50000E+00
 -1        68 1.00000E+00 1.00000E+00 3.00000E+00
 -1        69 1.00000E+00 1.00000E+00 3.50000E+00
 -1        70 1.00000E+00 1.00000E+00 4.00000E+00
 -1        71 1.00000E+00 1.00000E+00 4.50000E+00
 -1        72 1.00000E+00 1.00000E+00 5.00000E+00
 -1        73 1.00000E+00 1.00000E+00 5.50000E+00
 -1        74 1.00000E+00 1.00000E+00 6.00000E+00
 -1        78 0.00000E+00 1.00000E+00 5.00000E-01
 -1        79 0.00000E+00 1.00000E+00 1.00000E+00
 -1        80 0.00000E+00 1.00000E+00 1.50000E+00
 -1        81 0.00000E+00 1.00000E+00 2.00000E+00
 -1        82 0.00000E+00 1.00000E+00 2.50000E+00
 -1        83 0.00000E+00 1.00000E+00 3.00000E+00
 -1        84 0.00000E+00 1.00000E+00 3.50000E+00
 -1        85 0.00000E+00 1.00000E+00 4.00000E+00
 -1        86 0.00000E+00 1.00000E+00 4.50000E+00
 -1        87 0.00000E+00 1.00000E+00 5.00000E+00
 -1        88 0.00000E+00 1.00000E+00 5.50000E+00
 -1        89 0.00000E+00 1.00000E+00 6.00000E+00
 -1        93 5.00000E-01 2.50000E-01 0.00000E+00
 -1        94 2.50000E-01 5.00000E-01 0.00000E+00
 -1        95 5.00000E-01 5.00000E-01 0.00000E+00
 -1        96 7.50000E-01 5.00000E-01 0.00000E+00
 -1        97 5.00000E-01 7.50000E-01 0.00000E+00
 -1       103 5.00000E-01 0.00000E+00 5.00000E-01
 -1       104 2.50000E-01 0.00000E+00 1.00000E+00
 -1       105 5.00000E-01 0.00000E+00 1.00000E+00
 -1       106 7.50000E-01 0.00000E+00 1.00000E+00
 -1       107 5.00000E-01 0.00000E+00 1.50000E+00
 -1       108 2.50000E-01 0.00000E+00 2.00000E+00
 -1       109 5.00000E-01 0.00000E+00 2.00000E+00
 -1       110 7.50000E-01 0.00000E+00 2.00000E+00
 -1       111 5.00000E-01 0.00000E+00 2.50000E+00
 -1       112 2.50000E-01 0.00000E+00 3.00000E+00
 -1       113 5.00000E-01 0.00000E+00 3.00000E+00
 -1       114 7.50000E-01 0.00000E+00 3.00000E+00
 -1       115 5.00000E-01 0.00000E+00 3.50000E+00
 -1       116 2.50000E-01 0.00000E+00 4.00000E+00
 -1       117 5.00000E-01 0.00000E+00 4.00000E+00
 -1       118 7.50000E-01 0.00000E+00 4.00000E+00
 -1       119 5.00000E-01 0.00000E+00 4.50000E+00
 -1       120 2.50000E-01 0.00000E+00 5.00000E+00
 -1       121 5.00000E-01 0.00000E+00 5.00000E+00
 -1       122 7.50000E-01 0.00000E+00 5.00000E+00
 -1       123 5.00000E-01 0.00000E+00 5.50000E+00
 -1       124 2.50000E-01 0.00000E+00 6.00000E+00
 -1       125 5.00000E-01 0.00000E+00 6.00000E+00
 -1       126 7.50000E-01 0.00000E+00 6.00000E+00
 -1       132 1.00000E+00 5.00000E-01 5.00000E-01
 -1       133 1.00000E+00 2.50000E-01 1.00000E+00
 -1       134 1.00000E+00 5.00000E-01 1.00000E+00
 -1       135 1.00000E+00 7.50000E-01 1.00000E+00
 -1       136 1.00000E+00 5.00000E-01 1.50000E+00
 -1       137 1.00000E+00 2.50000E-01 2.00000E+00
 -1       138 1.00000E+00 5.00000E-01 2.00000E+00
 -1       139 1.00000E+00 7.50000E-01 2.00000E+00
 -1       140 1.00000E+00 5.00000E-01 2.50000E+00
 -1       141 1.00000E+00 2.50000E-01 3.00000E+00
 -1       142 1.00000E+00 5.00000E-01 3.00000E+00
 -1       143 1.00000E+00 7.50000E-01 3.00000E+00
 -1       144 1.00000E+00 5.00000E-01 3.50000E+00
 -1       145 1.00000E+00 2.50000E-01 4.00000E+00
 -1       146 1.00000E+00 5.00000E-01 4.00000E+00
 -1       147 1.00000E+00 7.50000E-01 4.00000E+00
 -1       148 1.00000E+00 5.00000E-01 4.50000E+00
 -1       149 1.00000E+00 2.50000E-01 5.00000E+00
 -1       150 1.00000E+00 5.00000E-01 5.00000E+00
 -1       151 1.00000E+00 7.50000E-01 5.00000E+00
 -1       152 1.00000E+00 5.00000E-01 5.50000E+00
 -1       153 1.00000E+00 2.50000E-01 6.00000E+00
 -1       154 1.00000E+00 5.00000E-01 6.00000E+00
 -1       155 1.00000E+00 7.50000E-01 6.00000E+00
 -1       161 5.00000E-01 1.00000E+00 5.00000E-01
 -1       162 7.50000E-01 1.00000E+00 1.00000E+00
 -1       163 5.00000E-01 1.00000E+00 1.00000E+00
 -1       164 2.50000E-01 1.00000E+00 1.00000E+00
 -1       165 5.00000E-01 1.00000E+00 1.50000E+00
 -1       166 7.50000E-01 1.00000E+00 2.00000E+00
 -1       167 5.00000E-01 1.00000E+00 2.00000E+00
 -1       168 2.50000E-01 1.00000E+00 2.00000E+00
 -1       169 5.00000E-01 1.00000E+00 2.50000E+00
 -1       170 7.50000E-01 1.00000E+00 3.00000E+00
 -1       171 5.00000E-01 1.00000E+00 3.00000E+00
 -1       172 2.50000E-01 1.00000E+00 3.00000E+00
 -1       173 5.00000E-01 1.00000E+00 3.50000E+00
 -1       174 7.50000E-01 1.00000E+00 4.00000E+00
 -1       175 5.00000E-01 1.00000E+00 4.00000E+00
 -1       176 2.50000E-01 1.00000E+00 4.00000E+00
 -1       177 5.00000E-01 1.00000E+00 4.50000E+00
 -1       178 7.50000E-01 1.00000E+00 5.00000E+00
 -1       179 5.00000E-01 1.00000E+00 5.00000E+00
 -1       180 2.50000E-01 1.00000E+00 5.00000E+00
 -1       181 5.00000E-01 1.00000E+00 5.50000E+00
 -1       182 7.50000E-01 1.00000E+00 6.00000E+00
 -1       183 5.00000E-01 1.00000E+00 6.00000E+00
 -1       184 2.50000E-01 1.00000E+00 6.00000E+00
 -1       190 0.00000E+00 5.00000E-01 5.00000E-01
 -1       191 0.00000E+00 7.50000E-01 1.00000E+00
 -1       192 0.00000E+00 5.00000E-01 1.00000E+00
 -1       193 0.00000E+00 2.50000E-01 1.00000E+00
 -1       194 0.00000E+00 5.00000E-01 1.50000E+00
 -1       195 0.00000E+00 7.50000E-01 2.00000E+00
 -1       196 0.00000E+00 5.00000E-01 2.00000E+00
 -1       197 0.00000E+00 2.50000E-01 2.00000E+00
 -1       198 0.00000E+00 5.00000E-01 2.50000E+00
 -1       199 0.00000E+00 7.50000E-01 3.00000E+00
 -1       200 0.00000E+00 5.00000E-01 3.00000E+00
 -1       201 0.00000E+00 2.50000E-01 3.00000E+00
 -1       202 0.00000E+00 5.00000E-01 3.50000E+00
 -1       203 0.00000E+00 7.50000E-01 4.00000E+00
 -1       204 0.00000E+00 5.00000E-01 4.00000E+00
 -1       205 0.00000E+00 2.50000E-01 4.00000E+00
 -1       206 0.00000E+00 5.00000E-01 4.50000E+00
 -1       207 0.00000E+00 7.50000E-01 5.00000E+00
 -1       208 0.00000E+00 5.00000E-01 5.00000E+00
 -1       209 0.00000E+00 2.50000E-01 5.00000E+00
 -1       210 0.00000E+00 5.00000E-01 5.50000E+00
 -1       211 0.00000E+00 7.50000E-01 6.00000E+00
 -1       212 0.00000E+00 5.00000E-01 6.00000E+00
 -1       213 0.00000E+00 2.50000E-01 6.00000E+00
 -1       219 5.00000E-01 5.00000E-01 5.00000E-01
 -1       220 5.00000E-01 2.50000E-01 1.00000E+00
 -1       221 2.50000E-01 5.00000E-01 1.00000E+00
 -1       222 5.00000E-01 5.00000E-01 1.00000E+00
 -1       223 7.50000E-01 5.00000E-01 1.00000E+00
 -1       224 5.00000E-01 7.50000E-01 1.00000E+00
 -1       225 5.00000E-01 5.00000E-01 1.50000E+00
 -1       226 5.00000E-01 2.50000E-01 2.00000E+00
 -1       227 2.50000E-01 5.00000E-01 2.00000E+00
 -1       228 5.00000E-01 5.00000E-01 2.00000E+00
 -1       229 7.50000E-01 5.00000E-01 2.00000E+00
 -1       230 5.00000E-01 7.50000E-01 2.00000E+00
 -1       231 5.00000E-01 5.00000E-01 2.50000E+00
 -1       232 5.00000E-01 2.50000E-01 3.00000E+00
 -1       233 2.50000E-01 5.00000E-01 3.00000E+00
 -1       234 5.00000E-01 5.00000E-01 3.00000E+00
 -1       235 7.50000E-01 5.00000E-01 3.00000E+00
 -1       236 5.00000E-01 7.50000E-01 3.00000E+00
 -1       237 5.00000E-01 5.00000E-01 3.50000E+00
 -1       238 5.00000E-01 2.50000E-01 4.00000E+00
 -1       239 2.50000E-01 5.00000E-01 4.00000E+00
 -1       240 5.00000E-01 5.00000E-01 4.00000E+00
 -1       241 7.50000E-01 5.00000E-01 4.00000E+00
 -1       242 5.00000E-01 7.50000E-01 4.00000E+00
 -1       243 5.00000E-01 5.00000E-01 4.50000E+00
 -1       244 5.00000E-01 2.50000E-01 5.00000E+00
 -1       245 2.50000E-01 5.00000E-01 5.00000E+00
 -1       246 5.00000E-01 5.00000E-01 5.00000E+00
 -1       247 7.50000E-01 5.00000E-01 5.00000E+00
 -1       248 5.00000E-01 7.50000E-01 5.00000E+00
 -1       249 5.00000E-01 5.00000E-01 5.50000E+00
 -1       250 5.00000E-01 2.50000E-01 6.00000E+00
 -1       251 2.50000E-01 5.00000E-01 6.00000E+00
 -1       252 5.00000E-01 5.00000E-01 6.00000E+00
 -1       253 7.50000E-01 5.00000E-01 6.00000E+00
 -1       254 5.00000E-01 7.50000E-01 6.00000E+00
 -3
    3C                            24                                     1
 -1         1    4    0    1
 -2         1        10        95        19        61       105       222       192         9        93
 -2        94        20        62       103       219       190       104       220       221       193
 -1         2    4    0    1
 -2        10         2        13        95       105        34       134       222        11        12
 -2        96        93       103        33       132       219       106       133       223       220
 -1         3    4    0    1
 -2        19        95        16         4       192       222       163        79        94        97
 -2        17        18       190       219       161        78       221       224       164       191
 -1         4    4    0    1
 -2        95        13         3        16       222       134        64       163        96        14
 -2        15        97       219       132        63       161       223       135       162       224
 -1         5    4    0    1
 -2        61       105       222       192        59       109       228       196       104       220
 -2       221       193        60       107       225       194       108       226       227       197
 -1         6    4    0    1
 -2       105        34       134       222       109        36       138       228       106       133
 -2       223       220       107        35       136       225       110       137       229       226
 -1         7    4    0    1
 -2       192       222       163        79       196       228       167        81       221       224
 -2       164       191       194       225       165        80       227       230       168       195
 -1         8    4    0    1
 -2       222       134        64       163       228       138        66       167       223       135
 -2       162       224       225       136        65       165       229       139       166       230
 -1         9    4    0    1
 -2        59       109       228       196        57       113       234       200       108       226
 -2       227       197        58       111       231       198       112       232       233       201
 -1        10    4    0    1
 -2       109        36       138       228       113        38       142       234       110       137
 -2       229       226       111        37       140       231       114       141       235       232
 -1        11    4    0    1
 -2       196       228       167        81       200       234       171        83       227       230
 -2       168       195       198       231       169        82       233       236       172       199
 -1        12    4    0    1
 -2       228       138        66       167       234       142        68       171       229       139
 -2       166       230       231       140        67       169       235       143       170       236
 -1        13    4    0    1
 -2        57       113       234       200        55       117       240       204       112       232
 -2       233       201        56       115       237       202       116       238       239       205
 -1        14    4    0    1
 -2       113        38       142       234       117        40       146       240       114       141
 -2       235       232       115        39       144       237       118       145       241       238
 -1        15    4    0    1
 -2       200       234       171        83       204       240       175        85       233       236
 -2       172       199       202       237       173        84       239       242       176       203
 -1        16    4    0    1
 -2       234       142        68       171       240       146        70       175       235       143
 -2       170       236       237       144        69       173       241       147       174       242
 -1        17    4    0    1
 -2        55       117       240       204        53       121       246       208       116       238
 -2       239       205        54       119       243       206       120       244       245       209
 -1        18    4    0    1
 -2       117        40       146       240       121        42       150       246       118       145
 -2       241       238       119        41       148       243       122       149       247       244
 -1        19    4    0    1
 -2       204       240       175        85       208       246       179        87       239       242
 -2       176       203       206       243       177        86       245       248       180       207
 -1        20    4    0    1
 -2       240       146        70       175       246       150        72       179       241       147
 -2       174       242       243       148        71       177       247       151       178       248
 -1        21    4    0    1
 -2        53       121       246       208        51       125       252       212       120       244
 -2       245       209        52       123       249       210       124       250       251       213
 -1        22    4    0    1
 -2       121        42       150       246       125        44       154       252       122       149
 -2       247       244       123        43       152       249       126       153       253       250
 -1        23    4    0    1
 -2       208       246       179        87       212       252       183        89       245       248
 -2       180       207       210       249       181        88       251       254       184       211
 -1        24    4    0    1
 -2       246       150        72       179       252       154        74       183       247       151
 -2       178       248       249       152        73       181       253       155       182       254
 -3
    1PSTEP                         1           1           1          
  100CL  101 5.00000E-03         201                     1    1           1
 -4  DISP        4    1
 -5  D1          1    2    1    0
 -5  D2          1    2    2    0
 -5  D3          1    2    3    0
 -5  ALL         1    2    0    0    1ALL
 -1         1 0.00000E+00 0.00000E+00 0.00000E+00
 -1         2 0.00000E+00 0.00000E+00 0.00000E+00
 -1         3 0.00000E+00 0.00000E+00 0.00000E+00
 -1         4 0.00000E+00 0.00000E+00 0.00000E+00
 -1         9 0.00000E+00 0.00000E+00 0.00000E+00
 -1        10 0.00000E+00 0.00000E+00 0.00000E+00
 -1        11 0.00000E+00 0.00000E+00 0.00000E+00
 -1        12 0.00000E+00 0.00000E+00 0.00000E+00
 -1        13 0.00000E+00 0.00000E+00 0.00000E+00
 -1        14 0.00000E+00 0.00000E+00 0.00000E+00
 -1        15 0.00000E+00 0.00000E+00 0.00000E+00
 -1        16 0.00000E+00 0.00000E+00 0.00000E+00
 -1        17 0.00000E+00 0.00000E+00 0.00000E+00
 -1        18 0.00000E+00 0.00000E+00 0.00000E+00
 -1        19 0.00000E+00 0.00000E+00 0.00000E+00
 -1        20 0.00000E+00 0.00000E+00 0.00000E+00
 -1        33 6.38183E-06-1.55613E-05-2.04460E-05
 -1        34 3.13464E-06-4.81784E-05-3.74304E-05
 -1        35 2.57942E-06-9.70627E-05-4.83844E-05
 -1        36 8.19286E-07-1.52812E-04-5.40869E-05
 -1        37-5.06435E-07-2.11151E-04-5.47679E-05
 -1        38-2.09565E-06-2.69415E-04-5.19047E-05
 -1        39-4.24495E-06-3.19527E-04-3.84747E-05
 -1        40-4.32700E-06-3.54330E-04-2.09561E-05
 -1        41-4.39329E-06-3.58012E-04-6.36968E-06
 -1        42-6.06165E-06-3.73848E-04-1.48583E-05
 -1        43 6.19215E-06-3.47414E-04 8.51147E-06
 -1        44-6.27458E-06-3.46814E-04 4.48380E-05
 -1        51 6.29101E-06-3.46808E-04 4.48251E-05
 -1        52-6.16920E-06-3.47416E-04 8.50298E-06
 -1        53 6.09264E-06-3.73848E-04-1.48606E-05
 -1        54 4.42262E-06-3.58013E-04-6.37012E-06
 -1        55 4.35689E-06-3.54331E-04-2.09549E-05
 -1        56 4.27162E-06-3.19528E-04-3.84721E-05
 -1        57 2.11891E-06-2.69415E-04-5.19007E-05
 -1        58 5.24683E-07-2.11151E-04-5.47635E-05
 -1        59-8.05927E-07-1.52812E-04-5.40823E-05
 -1        60-2.57094E-06-9.70625E-05-4.83803E-05
 -1        61-3.13038E-06-4.81781E-05-3.74272E-05
 -1        62-6.38045E-06-1.55607E-05-2.04442E-05
 -1        63-6.26333E-06-1.53873E-05 2.01015E-05
 -1        64-3.11471E-06-4.81216E-05 3.66917E-05
 -1        65-2.33578E-06-9.70176E-05 4.73513E-05
 -1        66-7.83411E-07-1.53465E-04 5.27138E-05
 -1        67 5.04823E-07-2.10170E-04 5.30744E-05
 -1        68 1.45773E-06-2.69454E-04 4.93831E-05
 -1        69 5.89838E-06-3.20617E-04 3.58138E-05
 -1        70 6.66088E-06-3.63522E-04 1.84567E-05
 -1        71-6.13461E-07-3.45694E-04 3.32641E-06
 -1        72-1.06707E-05-3.47322E-04 7.92052E-06
 -1        73 2.05963E-05-3.89349E-04-1.68275E-05
 -1        74 3.24572E-05-4.42350E-04-4.94319E-05
 -1        78 6.26471E-06-1.53878E-05 2.01033E-05
 -1        79 3.11897E-06-4.81218E-05 3.66949E-05
 -1        80 2.34426E-06-9.70178E-05 4.73554E-05
 -1        81 7.96767E-07-1.53466E-04 5.27183E-05
 -1        82-4.86578E-07-2.10170E-04 5.30788E-05
 -1        83-1.43448E-06-2.69454E-04 4.93871E-05
 -1        84-5.87171E-06-3.20617E-04 3.58164E-05
 -1        85-6.63100E-06-3.63522E-04 1.84579E-05
 -1        86 6.42786E-07-3.45693E-04 3.32596E-06
 -1        87 1.07017E-05-3.47322E-04 7.91820E-06
 -1        88-2.05734E-05-3.89348E-04-1.68359E-05
 -1        89-3.24408E-05-4.42355E-04-4.94448E-05
 -1        93 0.00000E+00 0.00000E+00 0.00000E+00
 -1        94 0.00000E+00 0.00000E+00 0.00000E+00
 -1        95 0.00000E+00 0.00000E+00 0.00000E+00
 -1        96 0.00000E+00 0.00000E+00 0.00000E+00
 -1        97 0.00000E+00 0.00000E+00 0.00000E+00
 -1       103 5.31214E-10-1.81886E-05-2.00663E-05
 -1       104-1.55978E-06-5.01213E-05-3.80194E-05
 -1       105 2.09012E-09-5.03741E-05-3.82847E-05
 -1       106 1.56393E-06-5.01214E-05-3.80209E-05
 -1       107 4.18510E-09-9.80706E-05-4.86536E-05
 -1       108-3.23343E-07-1.53029E-04-5.44538E-05
 -1       109 6.61651E-09-1.54093E-04-5.43459E-05
 -1       110 3.36632E-07-1.53029E-04-5.44560E-05
 -1       111 9.20840E-09-2.10270E-04-5.51478E-05
 -1       112 7.64607E-07-2.71834E-04-5.21165E-05
 -1       113 1.14560E-08-2.71163E-04-5.22804E-05
 -1       114-7.41465E-07-2.71834E-04-5.21184E-05
 -1       115 1.35884E-08-3.15687E-04-3.93178E-05
 -1       116 3.31601E-06-3.51944E-04-2.03922E-05
 -1       117 1.44145E-08-3.64175E-04-1.82881E-05
 -1       118-3.28666E-06-3.51944E-04-2.03929E-05
 -1       119 1.54446E-08-3.55409E-04-6.58877E-06
 -1       120-6.49137E-07-3.91083E-04-1.12851E-05
 -1       121 1.37141E-08-3.76560E-04-1.17799E-05
 -1       122 6.78706E-07-3.91083E-04-1.12830E-05
 -1       123 1.27070E-08-3.48208E-04-2.57212E-06
 -1       124 1.47853E-05-2.96532E-04 4.29263E-05
 -1       125 4.03132E-09-3.58811E-04 4.48513E-05
 -1       126-1.47736E-05-2.96534E-04 4.29293E-05
 -1       132 7.25575E-08-1.18647E-05-1.60179E-07
 -1       133 1.61497E-06-4.69530E-05-1.77974E-05
 -1       134 9.14178E-08-4.74240E-05-2.87907E-07
 -1       135-1.53696E-06-4.69635E-05 1.71143E-05
 -1       136-1.28317E-08-9.53090E-05-5.58346E-07
 -1       137 4.87481E-07-1.52618E-04-2.68550E-05
 -1       138 5.76393E-08-1.51838E-04-7.36333E-07
 -1       139-3.60008E-07-1.52789E-04 2.55114E-05
 -1       140 1.80475E-07-2.12566E-04-9.17351E-07
 -1       141-1.03555E-06-2.67972E-04-2.44280E-05
 -1       142 5.69181E-07-2.68622E-04-5.06375E-07
 -1       143 1.14317E-06-2.68587E-04 2.24147E-05
 -1       144-8.84133E-07-3.21924E-04-1.26701E-06
 -1       145-2.01103E-06-3.56181E-04-1.31950E-05
 -1       146-1.28971E-06-3.46485E-04-2.48304E-06
 -1       147 1.82507E-06-3.58616E-04 1.00715E-05
 -1       148 2.74353E-06-3.68100E-04-2.37279E-06
 -1       149-3.28489E-06-3.42127E-04-4.70390E-06
 -1       150 8.60524E-06-3.44799E-04-1.71471E-07
 -1       151 2.88189E-06-3.35276E-04 2.29896E-08
 -1       152-1.27884E-05-3.72089E-04 1.22012E-06
 -1       153 7.17047E-06-3.63196E-04 1.90966E-05
 -1       154-1.20880E-05-2.49943E-04-2.05878E-06
 -1       155-6.73514E-06-3.88785E-04-2.37744E-05
 -1       161 5.30861E-10-1.80681E-05 1.96942E-05
 -1       162-1.53453E-06-5.00576E-05 3.73476E-05
 -1       163 2.08951E-09-5.01283E-05 3.75652E-05
 -1       164 1.53869E-06-5.00578E-05 3.73491E-05
 -1       165 4.18397E-09-9.80776E-05 4.76516E-05
 -1       166-3.88637E-07-1.52764E-04 5.30475E-05
 -1       167 6.61529E-09-1.53690E-04 5.32727E-05
 -1       168 4.01923E-07-1.52764E-04 5.30497E-05
 -1       169 9.20661E-09-2.10355E-04 5.30775E-05
 -1       170 7.64400E-07-2.71832E-04 5.01215E-05
 -1       171 1.14545E-08-2.68018E-04 4.96775E-05
 -1       172-7.41263E-07-2.71832E-04 5.01233E-05
 -1       173 1.35854E-08-3.17761E-04 3.68894E-05
 -1       174 3.15654E-06-3.46086E-04 1.70967E-05
 -1       175 1.44119E-08-3.56140E-04 1.72665E-05
 -1       176-3.12720E-06-3.46086E-04 1.70974E-05
 -1       177 1.54423E-08-3.51069E-04 2.09206E-06
 -1       178-4.46753E-06-4.00888E-04 7.17236E-06
 -1       179 1.37178E-08-3.57808E-04 4.80959E-06
 -1       180 4.49709E-06-4.00888E-04 7.17029E-06
 -1       181 1.27014E-08-3.68375E-04-6.11621E-06
 -1       182 1.13629E-05-2.55800E-04-4.70790E-05
 -1       183 4.04855E-09-4.36033E-04-4.76386E-05
 -1       184-1.13512E-05-2.55802E-04-4.70820E-05
 -1       190-7.09590E-08-1.18647E-05-1.58445E-07
 -1       191 1.54139E-06-4.69637E-05 1.71176E-05
 -1       192-8.69394E-08-4.74240E-05-2.84597E-07
 -1       193-1.61054E-06-4.69529E-05-1.77941E-05
 -1       194 2.13706E-08-9.53090E-05-5.54222E-07
 -1       195 3.73457E-07-1.52789E-04 2.55160E-05
 -1       196-4.41036E-08-1.51838E-04-7.31715E-07
 -1       197-4.74030E-07-1.52618E-04-2.68504E-05
 -1       198-1.62398E-07-2.12566E-04-9.12854E-07
 -1       199-1.11985E-06-2.68587E-04 2.24188E-05
 -1       200-5.45713E-07-2.68622E-04-5.02199E-07
 -1       201 1.05887E-06-2.67972E-04-2.44239E-05
 -1       202 9.10439E-07-3.21924E-04-1.26449E-06
 -1       203-1.79487E-06-3.58616E-04 1.00728E-05
 -1       204 1.32026E-06-3.46485E-04-2.48187E-06
 -1       205 2.04123E-06-3.56181E-04-1.31936E-05
 -1       206-2.71543E-06-3.68100E-04-2.37306E-06
 -1       207-2.85022E-06-3.35276E-04 2.12588E-08
 -1       208-8.57238E-06-3.44799E-04-1.71517E-07
 -1       209 3.31656E-06-3.42127E-04-4.70564E-06
 -1       210 1.28105E-05-3.72089E-04 1.20953E-06
 -1       211 6.75666E-06-3.88787E-04-2.37863E-05
 -1       212 1.21133E-05-2.49943E-04-2.07355E-06
 -1       213-7.14898E-06-3.63194E-04 1.90847E-05
 -1       219 6.46489E-10-1.44421E-05-1.42312E-07
 -1       220 2.14888E-09-4.89350E-05-1.83603E-05
 -1       221-3.94170E-08-4.90876E-05-3.61859E-07
 -1       222 2.14382E-09-4.92283E-05-3.78921E-07
 -1       223 4.37354E-08-4.90876E-05-3.63427E-07
 -1       224 2.14857E-09-4.87973E-05 1.76663E-05
 -1       225 4.25155E-09-9.65243E-05-5.11439E-07
 -1       226 6.58795E-09-1.53372E-04-2.72836E-05
 -1       227-2.96004E-08-1.51962E-04-6.83204E-07
 -1       228 6.55875E-09-1.52146E-04-8.43525E-07
 -1       229 4.29114E-08-1.51962E-04-6.85477E-07
 -1       230 6.58734E-09-1.53210E-04 2.57673E-05
 -1       231 9.23524E-09-2.12427E-04-7.44447E-07
 -1       232 1.13239E-08-2.68768E-04-2.49249E-05
 -1       233-2.12743E-07-2.68346E-04-1.26748E-06
 -1       234 1.12225E-08-2.68066E-04-1.39512E-06
 -1       235 2.35780E-07-2.68346E-04-1.26937E-06
 -1       236 1.13231E-08-2.67045E-04 2.27072E-05
 -1       237 1.35934E-08-3.19152E-04-9.31633E-07
 -1       238 1.41076E-08-3.61089E-04-1.24059E-05
 -1       239 5.95410E-07-3.45282E-04-1.43338E-06
 -1       240 1.38693E-08-3.47660E-04-2.00804E-06
 -1       241-5.66351E-07-3.45282E-04-1.43442E-06
 -1       242 1.41064E-08-3.57367E-04 8.84310E-06
 -1       243 1.56289E-08-3.65537E-04-2.11708E-06
 -1       244 1.31109E-08-3.52006E-04-2.03250E-06
 -1       245-3.40207E-06-3.61066E-04-2.62297E-06
 -1       246 1.26131E-08-3.65229E-04-1.97362E-06
 -1       247 3.43166E-06-3.61066E-04-2.62060E-06
 -1       248 1.31130E-08-3.43567E-04-1.01197E-06
 -1       249 1.30514E-08-3.52098E-04-1.32499E-06
 -1       250 3.18671E-09-4.08509E-04 1.74545E-05
 -1       251 3.10632E-06-2.57254E-04-1.02929E-06
 -1       252 2.44167E-09-3.12274E-04-1.58780E-06
 -1       253-3.09206E-06-2.57254E-04-1.03069E-06
 -1       254 3.19600E-09-4.41795E-04-2.54196E-05
 -3
    1PSTEP                         2           2           1          
  100CL  102 1.00000E-02         201                     1    2           1
 -4  DISP        4    1
 -5  D1          1    2    1    0
 -5  D2          1    2    2    0
 -5  D3          1    2    3    0
 -5  ALL         1    2    0    0    1ALL
 -1         1 0.00000E+00 0.00000E+00 0.00000E+00
 -1         2 0.00000E+00 0.00000E+00 0.00000E+00
 -1         3 0.00000E+00 0.00000E+00 0.00000E+00
 -1         4 0.00000E+00 0.00000E+00 0.00000E+00
 -1         9 0.00000E+00 0.00000E+00 0.00000E+00
 -1        10 0.00000E+00 0.00000E+00 0.00000E+00
 -1        11 0.00000E+00 0.00000E+00 0.00000E+00
 -1        12 0.00000E+00 0.00000E+00 0.00000E+00
 -1        13 0.00000E+00 0.00000E+00 0.00000E+00
 -1        14 0.00000E+00 0.00000E+00 0.00000E+00
 -1        15 0.00000E+00 0.00000E+00 0.00000E+00
 -1        16 0.00000E+00 0.00000E+00 0.00000E+00
 -1        17 0.00000E+00 0.00000E+00 0.00000E+00
 -1        18 0.00000E+00 0.00000E+00 0.00000E+00
 -1        19 0.00000E+00 0.00000E+00 0.00000E+00
 -1        20 0.00000E+00 0.00000E+00 0.00000E+00
 -1        33-3.19996E-06 7.91807E-06 1.03017E-05
 -1        34-1.54867E-06 2.44829E-05 1.87753E-05
 -1        35-1.27507E-06 4.92624E-05 2.42753E-05
 -1        36-4.50605E-07 7.74403E-05 2.70090E-05
 -1        37 4.32983E-07 1.07197E-04 2.71875E-05
 -1        38 1.35345E-06 1.36768E-04 2.50308E-05
 -1        39 2.07025E-06 1.60906E-04 1.85257E-05
 -1        40 1.39470E-06 1.78351E-04 9.25018E-06
 -1        41 3.53762E-06 1.81778E-04 2.07409E-06
 -1        42 4.52504E-06 1.87154E-04 1.09386E-06
 -1        43-4.02475E-06 1.69724E-04-7.83685E-06
 -1        44-1.55487E-05 1.60541E-04-2.33905E-05
 -1        51 1.55715E-05 1.60515E-04-2.33915E-05
 -1        52 4.04383E-06 1.69722E-04-7.84071E-06
 -1        53-4.52234E-06 1.87157E-04 1.09456E-06
 -1        54-3.52846E-06 1.81780E-04 2.07689E-06
 -1        55-1.38867E-06 1.78352E-04 9.25087E-06
 -1        56-2.06288E-06 1.60908E-04 1.85270E-05
 -1        57-1.34965E-06 1.36770E-04 2.50321E-05
 -1        58-4.29098E-07 1.07199E-04 2.71891E-05
 -1        59 4.52616E-07 7.74413E-05 2.70103E-05
 -1        60 1.27655E-06 4.92632E-05 2.42764E-05
 -1        61 1.54901E-06 2.44835E-05 1.87761E-05
 -1        62 3.20007E-06 7.91844E-06 1.03021E-05
 -1        63 3.19976E-06 7.91711E-06-1.03003E-05
 -1        64 1.54942E-06 2.44825E-05-1.87721E-05
 -1        65 1.27552E-06 4.92630E-05-2.42709E-05
 -1        66 4.53124E-07 7.74448E-05-2.70030E-05
 -1        67-4.25232E-07 1.07189E-04-2.71801E-05
 -1        68-1.34160E-06 1.36763E-04-2.50181E-05
 -1        69-2.08131E-06 1.60926E-04-1.85121E-05
 -1        70-1.41340E-06 1.78424E-04-9.23790E-06
 -1        71-3.45006E-06 1.81651E-04-2.06356E-06
 -1        72-4.34967E-06 1.86906E-04-1.05643E-06
 -1        73 3.68297E-06 1.70201E-04 7.89733E-06
 -1        74 1.50693E-05 1.61526E-04 2.34194E-05
 -1        78-3.19919E-06 7.91719E-06-1.02998E-05