
 displacements (vx,vy,vz) for set NALL and time  0.5000000E-02

         5  0.000000E+00  0.000000E+00  0.000000E+00
         6  0.000000E+00  0.000000E+00  0.000000E+00
         7  0.000000E+00  0.000000E+00  0.000000E+00
         8  0.000000E+00  0.000000E+00  0.000000E+00
        21  0.000000E+00  0.000000E+00  0.000000E+00
        22  0.000000E+00  0.000000E+00  0.000000E+00
        23  0.000000E+00  0.000000E+00  0.000000E+00
        24  0.000000E+00  0.000000E+00  0.000000E+00
        25  0.000000E+00  0.000000E+00  0.000000E+00
        26  0.000000E+00  0.000000E+00  0.000000E+00
        27  0.000000E+00  0.000000E+00  0.000000E+00
        28  0.000000E+00  0.000000E+00  0.000000E+00
        29  0.000000E+00  0.000000E+00  0.000000E+00
        30  0.000000E+00  0.000000E+00  0.000000E+00
        31  0.000000E+00  0.000000E+00  0.000000E+00
        32  0.000000E+00  0.000000E+00  0.000000E+00
        44 -5.973584E-07 -3.465242E-05  4.484883E-06
        45  5.692576E-07 -2.562260E-05  7.854243E-06
        46 -4.790112E-07 -1.796335E-05  9.494326E-06
        47  1.309834E-06 -6.751690E-06  5.433213E-06
        48 -1.309858E-06 -6.751708E-06  5.433261E-06
        49  4.788864E-07 -1.796337E-05  9.494435E-06
        50 -5.694940E-07 -2.562261E-05  7.854441E-06
        51  5.967777E-07 -3.465250E-05  4.485225E-06
        74  3.174157E-06 -4.411201E-05 -4.947727E-06
        75  1.903319E-06 -2.971790E-05 -7.849680E-06
        76 -1.099206E-06 -1.598449E-05 -9.502274E-06
        77 -2.077095E-06 -5.270049E-06 -5.583194E-06
        89 -3.174726E-06 -4.411190E-05 -4.947371E-06
        90 -1.903551E-06 -2.971790E-05 -7.849480E-06
        91  1.099081E-06 -1.598446E-05 -9.502167E-06
        92  2.077072E-06 -5.270030E-06 -5.583148E-06
        98  0.000000E+00  0.000000E+00  0.000000E+00
        99  0.000000E+00  0.000000E+00  0.000000E+00
       100  0.000000E+00  0.000000E+00  0.000000E+00
       101  0.000000E+00  0.000000E+00  0.000000E+00
       102  0.000000E+00  0.000000E+00  0.000000E+00
       124  1.503309E-06 -2.966703E-05  4.296740E-06
       125 -2.197702E-10 -3.590229E-05  4.487079E-06
       126 -1.503808E-06 -2.966700E-05  4.296628E-06
       127 -1.422057E-10 -2.563318E-05  9.040154E-06
       128 -9.308222E-08 -1.953100E-05  9.483663E-06
       129 -3.700575E-11 -1.814531E-05  9.417168E-06
       130  9.298441E-08 -1.953098E-05  9.483595E-06
       131 -7.787898E-12 -7.364819E-06  5.564330E-06
       153  6.948509E-07 -3.637277E-05  1.911305E-06
       154 -1.205401E-06 -2.503618E-05 -2.095061E-07
       155 -6.472035E-07 -3.889910E-05 -2.380960E-06
       156 -1.201343E-06 -2.790064E-05 -6.453816E-07
       157 -2.057125E-07 -1.509096E-05  3.923895E-06
       158  8.836135E-07 -1.567097E-05 -2.943101E-07
       159  4.665746E-07 -1.475768E-05 -4.111969E-06
       160  3.979432E-07 -6.565617E-06  4.877334E-08
       182  1.149139E-06 -2.563817E-05 -4.713820E-06
       183 -2.120814E-10 -4.355860E-05 -4.766604E-06
       184 -1.149625E-06 -2.563813E-05 -4.713699E-06
       185 -1.399547E-10 -2.833791E-05 -8.744624E-06
       186 -4.409278E-07 -2.162577E-05 -9.829494E-06
       187 -3.637910E-11 -1.832020E-05 -9.640684E-06
       188  4.408307E-07 -2.162575E-05 -9.829427E-06
       189 -7.580684E-12 -7.200003E-06 -5.646109E-06
       211  6.465416E-07 -3.889905E-05 -2.380630E-06
       212  1.204674E-06 -2.503618E-05 -2.091182E-07
       213 -6.955211E-07 -3.637281E-05  1.911648E-06
       214  1.201132E-06 -2.790064E-05 -6.451694E-07
       215 -4.667196E-07 -1.475767E-05 -4.111853E-06
       216 -8.837780E-07 -1.567097E-05 -2.942043E-07
       217  2.055678E-07 -1.509098E-05  3.924008E-06
       218 -3.979715E-07 -6.565616E-06  4.880579E-08
       250 -2.126574E-10 -4.082030E-05  1.745784E-06
       251  3.036384E-07 -2.572382E-05 -1.040027E-07
       252 -2.048949E-10 -3.124674E-05 -1.555300E-07
       253 -3.041902E-07 -2.572382E-05 -1.040586E-07
       254 -2.091271E-10 -4.413811E-05 -2.542778E-06
       255 -1.594665E-10 -2.599782E-05 -3.185766E-07
       256 -3.383369E-11 -1.607708E-05  3.957795E-06
       257 -4.110081E-07 -1.749654E-05 -1.202384E-07
       258 -2.792669E-11 -1.790565E-05 -1.457688E-07
       259  4.108993E-07 -1.749654E-05 -1.203218E-07
       260 -3.341368E-11 -1.622761E-05 -4.184257E-06
       261 -1.468551E-11 -7.170864E-06 -2.000778E-08

 forces (fx,fy,fz) for set NALL and time  0.5000000E-02

         5  2.307622E+00 -4.180003E+00 -1.104283E+00
         6 -2.307590E+00 -4.180012E+00 -1.104246E+00
         7  3.471485E+00  1.074371E+00  1.267224E+00
         8 -3.471450E+00  1.074358E+00  1.267181E+00
        21 -2.804593E+00  5.572957E+00 -1.789839E+01
        22  2.545348E-06 -9.880448E+00 -6.617516E-01
        23  2.804544E+00  5.572893E+00 -1.789835E+01
        24 -4.631615E+00  1.711995E+01 -1.022268E+01
        25  8.569898E-01 -1.153007E+01 -4.608349E-01
        26  2.144336E+00  1.344072E+01  1.051006E+01
        27 -1.837087E+00 -4.425075E-01  1.760213E+01
        28  2.886422E-06 -1.616629E+00  1.775224E+00
        29  1.837036E+00 -4.425803E-01  1.760209E+01
        30 -2.144209E+00  1.344070E+01  1.050993E+01
        31 -8.568797E-01 -1.153007E+01 -4.609548E-01
        32  4.631740E+00  1.711997E+01 -1.022281E+01
        44  1.995498E+00  5.190163E+01  1.434677E+00
        45 -8.081410E-08 -6.080788E-01  1.525470E-01
        46 -5.106305E-08  1.541503E+00 -4.634054E-01
        47  1.396924E-07 -1.167019E+00  5.403011E-01
        48  1.797138E-07 -1.167019E+00  5.403012E-01
        49 -1.543889E-07  1.541503E+00 -4.634055E-01
        50  4.364994E-08 -6.080788E-01  1.525470E-01
        51 -1.995586E+00  5.190160E+01  1.434828E+00
        74 -7.455953E+00  1.764845E+01 -9.821300E-01
        75  6.499548E-09 -6.080797E-01 -1.525467E-01
        76 -4.220549E-09  1.541503E+00  4.634054E-01
        77  1.898868E-08 -1.167019E+00 -5.403012E-01
        89  7.455859E+00  1.764850E+01 -9.819558E-01
        90 -3.462305E-08 -6.080796E-01 -1.525467E-01
        91  3.334039E-08  1.541504E+00  4.634053E-01
        92 -5.545543E-08 -1.167019E+00 -5.403011E-01
        98 -8.558561E-05  3.796807E+01 -1.717239E+01
        99 -2.333292E-01 -7.609858E+00  6.546909E-01
       100 -4.322085E-05 -2.289963E+01 -3.835472E-01
       101  2.332570E-01 -7.609866E+00  6.546925E-01
       102 -9.127388E-05  3.529315E+01  1.650029E+01
       124  1.716769E+01  1.976754E+01 -6.134361E-01
       125 -4.067247E-05  1.114065E+02  2.968954E+00
       126 -1.716753E+01  1.976763E+01 -6.132661E-01
       127 -1.458642E-08 -1.216158E+00  3.050939E-01
       128  2.342882E-07 -2.615816E+00  9.358514E-01
       129 -2.131369E-07  3.083006E+00 -9.268108E-01
       130  1.385344E-07 -2.615816E+00  9.358512E-01
       131  3.229274E-07 -2.334038E+00  1.080602E+00
       153  1.153707E+01 -1.327463E+02 -2.301488E+00
       154 -2.897387E+00  9.865323E+01  4.378547E-01
       155  4.110425E+00 -1.083841E+02  1.400573E+00
       156 -1.266191E-07 -1.216158E+00 -2.724295E-07
       157  8.010902E-08 -2.615816E+00  7.018883E-01
       158 -3.537703E-08  3.083006E+00  2.473121E-07
       159 -4.031995E-08 -2.615817E+00 -7.018886E-01
       160  1.255736E-07 -2.334038E+00 -1.935322E-07
       182  8.104441E+00  6.531424E+01  4.079798E-01
       183 -3.946822E-05  5.169758E+01 -1.374650E+00
       184 -8.104271E+00  6.531433E+01  4.078135E-01
       185  1.301690E-08 -6.742475E+00 -3.050934E-01
       186 -4.623471E-08 -8.142133E+00 -9.358512E-01
       187  1.950326E-08 -2.443309E+00  9.268108E-01
       188 -1.002216E-07 -8.142133E+00 -9.358510E-01
       189 -3.829629E-08 -7.860354E+00 -1.080602E+00
       211 -4.110614E+00 -1.083841E+02  1.400578E+00
       212  2.897094E+00  9.865323E+01  4.382884E-01
       213 -1.153727E+01 -1.327463E+02 -2.301429E+00
       214  8.348059E-08 -1.216158E+00 -1.755496E-07
       215 -5.411793E-08 -2.615817E+00 -7.018884E-01
       216 -1.398807E-07  3.083007E+00  2.732347E-08
       217  2.185626E-07 -2.615816E+00  7.018885E-01
       218  1.436418E-07 -2.334038E+00  3.265402E-08
       250  1.482741E-04 -2.936796E+02 -5.872562E+00
       251  5.236641E+00  8.828167E+01  5.398359E-01
       252 -4.992106E-05  2.056231E+02  1.340864E+00
       253 -5.236342E+00  8.828168E+01  5.404838E-01
       254  1.615563E-04 -2.684538E+02  1.534927E+00
       255  1.403442E-08 -2.432317E+00 -5.775715E-07
       256  3.208305E-07 -5.231633E+00  1.403777E+00
       257  1.896906E-07 -5.231633E+00 -1.595486E-07
       258 -1.933850E-07  6.166013E+00  2.903385E-07
       259  4.804810E-08 -5.231633E+00 -4.788468E-07
       260 -6.090754E-08 -5.231634E+00 -1.403777E+00
       261  2.703450E-07 -4.668076E+00 -1.744695E-07

 displacements (vx,vy,vz) for set NALL and time  0.1000000E-01

         5  0.000000E+00  0.000000E+00  0.000000E+00
         6  0.000000E+00  0.000000E+00  0.000000E+00
         7  0.000000E+00  0.000000E+00  0.000000E+00
         8  0.000000E+00  0.000000E+00  0.000000E+00
        21  0.000000E+00  0.000000E+00  0.000000E+00
        22  0.000000E+00  0.000000E+00  0.000000E+00
        23  0.000000E+00  0.000000E+00  0.000000E+00
        24  0.000000E+00  0.000000E+00  0.000000E+00
        25  0.000000E+00  0.000000E+00  0.000000E+00
        26  0.000000E+00  0.000000E+00  0.000000E+00
        27  0.000000E+00  0.000000E+00  0.000000E+00
        28  0.000000E+00  0.000000E+00  0.000000E+00
        29  0.000000E+00  0.000000E+00  0.000000E+00
        30  0.000000E+00  0.000000E+00  0.000000E+00
        31  0.000000E+00  0.000000E+00  0.000000E+00
        32  0.000000E+00  0.000000E+00  0.000000E+00
        44 -1.586328E-06  1.599350E-05 -2.339433E-06
        45 -3.921312E-07  1.243549E-05 -3.773472E-06
        46  4.394225E-07  9.174270E-06 -4.321610E-06
        47 -5.268252E-07  3.714983E-06 -2.840822E-06
        48  5.269619E-07  3.715099E-06 -2.841090E-06
        49 -4.392123E-07  9.174073E-06 -4.321925E-06
        50  3.930516E-07  1.243585E-05 -3.774065E-06
        51  1.587937E-06  1.599252E-05 -2.339775E-06
        74  1.457284E-06  1.614278E-05  2.342376E-06
        75  3.148879E-07  1.251745E-05  3.774891E-06
        76 -3.969730E-07  9.133099E-06  4.322593E-06
        77  5.497350E-07  3.690354E-06  2.841686E-06
        89 -1.455646E-06  1.614178E-05  2.341524E-06
        90 -3.140799E-07  1.251771E-05  3.774551E-06
        91  3.974767E-07  9.132773E-06  4.322085E-06
        92 -5.496810E-07  3.690352E-06  2.841544E-06
        98  0.000000E+00  0.000000E+00  0.000000E+00
        99  0.000000E+00  0.000000E+00  0.000000E+00
       100  0.000000E+00  0.000000E+00  0.000000E+00
       101  0.000000E+00  0.000000E+00  0.000000E+00
       102  0.000000E+00  0.000000E+00  0.000000E+00
       124  6.445315E-08  1.482879E-05 -2.204459E-06
       125  1.114613E-09  1.764147E-05 -2.314023E-06
       126 -6.259361E-08  1.482924E-05 -2.204510E-06
       127  4.015190E-10  1.301988E-05 -4.178878E-06
       128 -4.091517E-08  9.583195E-06 -4.634210E-06
       129  2.088331E-10  8.891714E-06 -4.725168E-06
       130  4.123236E-08  9.583302E-06 -4.634002E-06
       131  1.496671E-11  3.754214E-06 -2.759714E-06
       153  1.276255E-06  1.916494E-05 -1.038044E-06
       154 -2.018457E-08  1.695600E-05  5.816723E-10
       155 -1.231244E-06  1.922830E-05  1.041464E-06
       156  6.214303E-09  1.406060E-05  9.824913E-09
       157 -2.544326E-07  7.941042E-06 -1.858997E-06
       158 -1.046311E-09  8.104886E-06  4.199031E-09
       159  2.438514E-07  7.924675E-06  1.859456E-06
       160 -1.526564E-09  3.082562E-06  3.166972E-10
       182  9.067822E-09  1.477491E-05  2.206704E-06
       183  4.024387E-10  1.771028E-05  2.317111E-06
       184 -7.871788E-09  1.477438E-05  2.205987E-06
       185  4.324653E-10  1.302366E-05  4.163715E-06
       186 -2.348203E-08  9.601134E-06  4.636814E-06
       187  1.320618E-10  8.893199E-06  4.720813E-06
       188  2.386663E-08  9.600972E-06  4.636632E-06
       189  4.415554E-11  3.755678E-06  2.759552E-06
       211  1.232794E-06  1.922825E-05  1.040781E-06
       212  2.193672E-08  1.695678E-05 -1.824246E-10
       213 -1.274443E-06  1.916484E-05 -1.039133E-06
       214 -5.424345E-09  1.406030E-05  9.263374E-09
       215 -2.433390E-07  7.924674E-06  1.859001E-06
       216  1.497830E-09  8.105230E-06  3.829042E-09
       217  2.547506E-07  7.941117E-06 -1.859218E-06
       218  1.650330E-09  3.082527E-06  1.566270E-10
       250  9.067771E-10  1.905798E-05 -1.030819E-06
       251 -6.227775E-09  1.209028E-05 -4.423505E-10
       252  6.754269E-10  1.541791E-05  2.719411E-10
       253  7.760256E-09  1.208981E-05 -3.041633E-10
       254  5.541781E-10  1.905300E-05  1.036430E-06
       255  4.538515E-10  1.376042E-05  1.544181E-09
       256  1.905009E-10  7.831157E-06 -2.073551E-06
       257  4.728807E-09  9.141035E-06  2.810461E-10
       258  1.604821E-10  8.113879E-06  8.044587E-10
       259 -4.352205E-09  9.140877E-06  5.202494E-10
       260  1.460814E-10  7.840068E-06  2.075115E-06
       261  5.054132E-11  3.482269E-06  1.249886E-11

 forces (fx,fy,fz) for set NALL and time  0.1000000E-01

         5 -1.687259E+00  4.221256E-01  9.213048E-01
         6  1.687403E+00  4.218736E-01  9.214439E-01
         7 -1.659798E+00  3.758802E-01 -9.216934E-01
         8  1.659420E+00  3.762351E-01 -9.216579E-01
        21  1.064304E+00 -1.680554E+00  8.962408E+00
        22 -1.005235E-04  7.619732E-01  1.406173E+00
        23 -1.064143E+00 -1.680772E+00  8.962376E+00
        24  1.160536E+00 -5.941611E+00  4.714946E+00
        25  3.708352E-02  2.477397E+00  1.109866E-02
        26 -1.188355E+00 -5.899409E+00 -4.724487E+00
        27  1.029400E+00 -1.631092E+00 -8.954414E+00
        28 -9.710784E-05  6.564023E-01 -1.428559E+00
        29 -1.029069E+00 -1.630616E+00 -8.953874E+00
        30  1.188049E+00 -5.899424E+00 -4.724035E+00
        31 -3.733838E-02  2.477080E+00  1.110677E-02
        32 -1.160577E+00 -5.941565E+00  4.715656E+00
        44 -6.303816E+00 -1.538222E+01 -7.543382E-01
        45  6.921464E-08  5.208708E-01 -1.306694E-01
        46  4.369643E-08 -1.320427E+00  3.969458E-01
        47 -1.195660E-07  9.996500E-01 -4.628135E-01
        48 -1.540324E-07  9.996501E-01 -4.628136E-01
        49  1.322906E-07 -1.320427E+00  3.969459E-01
        50 -3.738050E-08  5.208708E-01 -1.306694E-01
        51  6.303292E+00 -1.538298E+01 -7.546515E-01
        74  6.077305E+00 -1.505111E+01  7.509776E-01
        75 -5.512518E-09  5.208715E-01  1.306691E-01
        76  3.631133E-09 -1.320428E+00 -3.969458E-01
        77 -1.636289E-08  9.996501E-01  4.628136E-01
        89 -6.076233E+00 -1.505225E+01  7.521393E-01
        90  2.960259E-08  5.208715E-01  1.306691E-01
        91 -2.857466E-08 -1.320428E+00 -3.969458E-01
        92  4.759970E-08  9.996502E-01  4.628135E-01
        98 -2.721892E-04 -1.286766E+01  8.226347E+00
        99  3.978806E-02  3.909326E+00 -8.768192E-03
       100 -3.430260E-05  5.265642E+00  1.595664E-03
       101 -3.950824E-02  3.910256E+00 -9.054876E-03
       102  4.396809E-04 -1.277581E+01 -8.211851E+00
       124 -6.668474E+00 -1.670577E+01  4.685853E-01
       125  4.254181E-04 -3.134805E+01 -1.402537E+00
       126  6.668335E+00 -1.670566E+01  4.670450E-01
       127  1.249445E-08  1.041742E+00 -2.613387E-01
       128 -2.007446E-07  2.240667E+00 -8.016357E-01
       129  1.825698E-07 -2.640855E+00  7.938916E-01
       130 -1.186095E-07  2.240667E+00 -8.016355E-01
       131 -2.766146E-07  1.999300E+00 -9.256270E-01
       153  4.714829E+00  5.210548E+01  1.174964E+00
       154 -3.593770E-01 -3.325697E+01 -4.155227E-03
       155 -4.445467E+00  5.181775E+01 -1.164968E+00
       156  1.083985E-07  1.041742E+00  2.332683E-07
       157 -6.856353E-08  2.240667E+00 -6.012265E-01
       158  3.030771E-08 -2.640855E+00 -2.117873E-07
       159  3.451482E-08  2.240668E+00  6.012268E-01
       160 -1.075250E-07  1.999300E+00  1.657774E-07
       182 -6.417705E+00 -1.713752E+01 -4.681534E-01
       183  2.106537E-05 -3.044020E+01  1.394423E+00
       184  6.416856E+00 -1.713815E+01 -4.702300E-01
       185 -1.115013E-08  1.069444E+00  2.613382E-01
       186  3.957227E-08  2.268369E+00  8.016355E-01
       187 -1.670610E-08 -2.613155E+00 -7.938916E-01
       188  8.587981E-08  2.268369E+00  8.016353E-01
       189  3.280399E-08  2.027001E+00  9.256270E-01
       211  4.445589E+00  5.181860E+01 -1.166360E+00
       212  3.596252E-01 -3.325631E+01 -3.923333E-03
       213 -4.714529E+00  5.210559E+01  1.174027E+00
       214 -7.144688E-08  1.041742E+00  1.502825E-07
       215  4.637903E-08  2.240668E+00  6.012266E-01
       216  1.198156E-07 -2.640855E+00 -2.334849E-08
       217 -1.872740E-07  2.240667E+00 -6.012267E-01
       218 -1.230807E-07  1.999300E+00 -2.797012E-08
       250  1.305995E-03  1.047320E+02  2.321352E+00
       251 -3.866866E-01 -4.725457E+01 -8.919816E-03
       252  8.239800E-05 -6.939095E+01 -9.587932E-03
       253  3.861678E-01 -4.725766E+01 -9.994612E-03
       254 -1.416255E-03  1.038846E+02 -2.281755E+00
       255 -1.202185E-08  2.083485E+00  4.945845E-07
       256 -2.748184E-07  4.481335E+00 -1.202453E+00
       257 -1.625149E-07  4.481335E+00  1.365859E-07
       258  1.656507E-07 -5.281710E+00 -2.485857E-07
       259 -4.112860E-08  4.481335E+00  4.100916E-07
       260  5.217238E-08  4.481336E+00  1.202453E+00
       261 -2.315733E-07  3.998600E+00  1.494425E-07

 displacements (vx,vy,vz) for set NALL and time  0.1500000E-01

         5  0.000000E+00  0.000000E+00  0.000000E+00
         6  0.000000E+00  0.000000E+00  0.000000E+00
         7  0.000000E+00  0.000000E+00  0.000000E+00
         8  0.000000E+00  0.000000E+00  0.000000E+00
        21  0.000000E+00  0.000000E+00  0.000000E+00
        22  0.000000E+00  0.000000E+00  0.000000E+00
        23  0.000000E+00  0.000000E+00  0.000000E+00
        24  0.000000E+00  0.000000E+00  0.000000E+00
        25  0.000000E+00  0.000000E+00  0.000000E+00
        26  0.000000E+00  0.000000E+00  0.000000E+00
        27  0.000000E+00  0.000000E+00  0.000000E+00
        28  0.000000E+00  0.000000E+00  0.000000E+00
        29  0.000000E+00  0.000000E+00  0.000000E+00
        30  0.000000E+00  0.000000E+00  0.000000E+00
        31  0.000000E+00  0.000000E+00  0.000000E+00
        32  0.000000E+00  0.000000E+00  0.000000E+00
        44  1.285524E-06 -1.267413E-05  1.855702E-06
        45  3.109947E-07 -9.863855E-06  2.991601E-06
        46 -3.480098E-07 -7.263187E-06  3.419888E-06
        47  4.168542E-07 -2.945052E-06  2.253239E-06
        48 -4.168066E-07 -2.944903E-06  2.253110E-06
        49  3.479970E-07 -7.263342E-06  3.419885E-06
        50 -3.104179E-07 -9.863548E-06  2.991304E-06
        51 -1.283793E-06 -1.267657E-05  1.855875E-06
        74 -1.213499E-06 -1.273645E-05 -1.856262E-06
        75 -2.712141E-07 -9.901071E-06 -2.992548E-06
        76  3.291447E-07 -7.245413E-06 -3.420089E-06
        77 -4.281465E-07 -2.934591E-06 -2.252987E-06
        89  1.214967E-06 -1.273529E-05 -1.856105E-06
        90  2.720916E-07 -9.900777E-06 -2.992661E-06
        91 -3.289014E-07 -7.245402E-06 -3.420246E-06
        92  4.282070E-07 -2.934619E-06 -2.253078E-06
        98  0.000000E+00  0.000000E+00  0.000000E+00
        99  0.000000E+00  0.000000E+00  0.000000E+00
       100  0.000000E+00  0.000000E+00  0.000000E+00
       101  0.000000E+00  0.000000E+00  0.000000E+00
       102  0.000000E+00  0.000000E+00  0.000000E+00
       124 -7.165775E-08 -1.175166E-05  1.750036E-06
       125  9.886612E-10 -1.399033E-05  1.835729E-06
       126  7.329683E-08 -1.175080E-05  1.749225E-06
       127  2.737790E-10 -1.032227E-05  3.308517E-06
       128  3.503062E-08 -7.592548E-06  3.672702E-06
       129  1.150433E-10 -7.045737E-06  3.747501E-06
       130 -3.487722E-08 -7.592384E-06  3.672860E-06
       131 -1.486135E-11 -2.974222E-06  2.186578E-06
       153 -1.036930E-06 -1.520398E-05  8.252696E-07
       154  1.598401E-08 -1.351874E-05  1.529182E-10
       155  1.010505E-06 -1.524360E-05 -8.254605E-07
       156  9.067605E-10 -1.114745E-05 -4.120694E-09
       157  2.092894E-07 -6.297644E-06  1.472544E-06
       158 -2.396340E-09 -6.426669E-06 -1.201330E-09
       159 -2.031501E-07 -6.287308E-06 -1.471761E-06
       160 -2.148936E-10 -2.437504E-06 -7.991752E-11
       182 -2.939358E-08 -1.173130E-05 -1.749342E-06
       183  7.179562E-10 -1.400924E-05 -1.837966E-06
       184  3.066261E-08 -1.173112E-05 -1.749392E-06
       185  3.082683E-10 -1.031600E-05 -3.300869E-06
       186  2.451457E-08 -7.597155E-06 -3.673444E-06
       187  2.040690E-10 -7.046380E-06 -3.744165E-06
       188 -2.414291E-08 -7.597065E-06 -3.673470E-06
       189  3.278732E-11 -2.975923E-06 -2.186292E-06
       211 -1.010154E-06 -1.524255E-05 -8.252393E-07
       212 -1.597314E-08 -1.351831E-05 -3.923145E-12
       213  1.037597E-06 -1.520520E-05  8.248835E-07
       214 -2.761142E-10 -1.114756E-05 -4.412255E-09
       215  2.034498E-07 -6.287225E-06 -1.472058E-06
       216  2.583376E-09 -6.426373E-06 -1.503064E-09
       217 -2.091475E-07 -6.297510E-06  1.472472E-06
       218  3.202304E-10 -2.437488E-06 -2.427792E-10
       250  5.044133E-10 -1.510672E-05  8.179898E-07
       251  8.255081E-09 -9.575167E-06  1.393173E-10
       252 -3.905791E-11 -1.220987E-05 -7.382940E-10
       253 -8.141640E-09 -9.575435E-06  7.821805E-10
       254  3.920337E-10 -1.508689E-05 -8.206081E-07
       255  1.440320E-10 -1.091758E-05  2.238622E-10
       256  1.362255E-10 -6.199318E-06  1.645173E-06
       257 -2.188133E-09 -7.249891E-06  2.827170E-11
       258  1.649100E-10 -6.418633E-06 -3.069724E-12
       259  2.406511E-09 -7.250027E-06  5.485863E-11
       260  1.734628E-10 -6.205915E-06 -1.645388E-06
       261  5.590013E-11 -2.758703E-06  9.226871E-11

 forces (fx,fy,fz) for set NALL and time  0.1500000E-01

         5  1.338775E+00 -3.036646E-01 -7.344938E-01
         6 -1.338779E+00 -3.036327E-01 -7.345135E-01
         7  1.320606E+00 -2.951349E-01  7.347544E-01
         8 -1.320885E+00 -2.947659E-01  7.347706E-01
        21 -8.230585E-01  1.305049E+00 -7.099674E+00
        22 -1.886262E-04 -5.516831E-01 -1.126138E+00
        23  8.233607E-01  1.304983E+00 -7.099557E+00
        24 -8.982904E-01  4.660961E+00 -3.730823E+00
        25 -2.780771E-02 -1.898853E+00 -4.348765E-03
        26  9.224022E-01  4.652684E+00  3.734814E+00
        27 -8.093161E-01  1.293620E+00  7.094324E+00
        28 -2.797980E-04 -5.120132E-01  1.136961E+00
        29  8.097803E-01  1.293904E+00  7.094778E+00
        30 -9.222650E-01  4.652020E+00  3.734920E+00
        31  2.790928E-02 -1.899056E+00 -4.715968E-03
        32  8.984937E-01  4.661641E+00 -3.730422E+00
        44  5.044690E+00  1.196202E+01  5.939114E-01
        45 -5.499905E-08 -4.142604E-01  1.039243E-01
        46 -3.469163E-08  1.050166E+00 -3.157000E-01
        47  9.492597E-08 -7.950443E-01  3.680860E-01
        48  1.226731E-07 -7.950444E-01  3.680861E-01
        49 -1.052750E-07  1.050166E+00 -3.157001E-01
        50  2.968078E-08 -4.142604E-01  1.039243E-01
        51 -5.044640E+00  1.196206E+01  5.930226E-01
        74 -4.906084E+00  1.188758E+01 -5.967855E-01
        75  4.271279E-09 -4.142609E-01 -1.039241E-01
        76 -2.910518E-09  1.050166E+00  3.157000E-01
        77  1.318862E-08 -7.950444E-01 -3.680861E-01
        89  4.907098E+00  1.188648E+01 -5.961996E-01
        90 -2.343051E-08 -4.142609E-01 -1.039241E-01
        91  2.274854E-08  1.050166E+00  3.157000E-01
        92 -3.803196E-08 -7.950445E-01 -3.680861E-01
        98 -2.833213E-04  1.014870E+01 -6.521906E+00
        99 -2.993828E-02 -3.114854E+00  2.847426E-03
       100 -3.852643E-05 -4.124842E+00  2.021248E-03
       101  2.975940E-02 -3.114317E+00  2.091428E-03
       102 -2.459203E-05  1.009922E+01  6.514696E+00
       124  5.153389E+00  1.341876E+01 -3.631194E-01
       125  1.197601E-03  2.452392E+01  1.104214E+00
       126 -5.153954E+00  1.341856E+01 -3.660597E-01
       127 -9.936940E-09 -8.285207E-01  2.078486E-01
       128  1.597466E-07 -1.782054E+00  6.375590E-01
       129 -1.452020E-07  2.100332E+00 -6.314000E-01
       130  9.424312E-08 -1.782053E+00  6.375589E-01
       131  2.199979E-07 -1.590089E+00  7.361722E-01
       153 -3.923729E+00 -4.099700E+01 -9.238810E-01
       154  2.489553E-01  2.597536E+01 -2.795408E-03
       155  3.711798E+00 -4.094099E+01  9.245037E-01
       156 -8.612396E-08 -8.285213E-01 -1.853962E-07
       157  5.444226E-08 -1.782053E+00  4.781691E-01
       158 -2.411095E-08  2.100332E+00  1.683601E-07
       159 -2.741018E-08 -1.782054E+00 -4.781693E-01
       160  8.546141E-08 -1.590089E+00 -1.318477E-07
       182  5.064518E+00  1.353922E+01  3.730007E-01
       183  9.865679E-04  2.413824E+01 -1.111172E+00
       184 -5.065477E+00  1.353867E+01  3.718819E-01
       185  8.868108E-09 -8.299799E-01 -2.078482E-01
       186 -3.141851E-08 -1.783512E+00 -6.375589E-01
       187  1.328660E-08  2.098874E+00  6.314000E-01
       188 -6.835620E-08 -1.783512E+00 -6.375588E-01
       189 -2.608974E-08 -1.591547E+00 -7.361722E-01
       211 -3.711907E+00 -4.093694E+01  9.254566E-01
       212 -2.511076E-01  2.597565E+01 -2.941508E-03
       213  3.923503E+00 -4.100056E+01 -9.236758E-01
       214  5.673588E-08 -8.285212E-01 -1.193958E-07
       215 -3.692640E-08 -1.782054E+00 -4.781692E-01
       216 -9.528575E-08  2.100332E+00  1.849054E-08
       217  1.490313E-07 -1.782054E+00  4.781692E-01
       218  9.794461E-08 -1.590089E+00  2.224413E-08
       250  1.160697E-03 -8.264228E+01 -1.833520E+00
       251  2.710719E-01  3.759382E+01  7.861141E-03
       252 -2.630996E-03  5.468125E+01 -5.993512E-03
       253 -2.685246E-01  3.759224E+01  1.201396E-02
       254 -2.457800E-04 -8.216965E+01  1.819894E+00
       255  9.561563E-09 -1.657043E+00 -3.931381E-07
       256  2.185695E-07 -3.564107E+00  9.563382E-01
       257  1.292921E-07 -3.564108E+00 -1.085162E-07
       258 -1.317461E-07  4.200664E+00  1.975465E-07
       259  3.267056E-08 -3.564107E+00 -3.260414E-07
       260 -4.149370E-08 -3.564108E+00 -9.563384E-01
       261  1.841756E-07 -3.180178E+00 -1.188475E-07

 displacements (vx,vy,vz) for set NALL and time  0.2000000E-01

         5  0.000000E+00  0.000000E+00  0.000000E+00
         6  0.000000E+00  0.000000E+00  0.000000E+00
         7  0.000000E+00  0.000000E+00  0.000000E+00
         8  0.000000E+00  0.000000E+00  0.000000E+00
        21  0.000000E+00  0.000000E+00  0.000000E+00
        22  0.000000E+00  0.000000E+00  0.000000E+00
        23  0.000000E+00  0.000000E+00  0.000000E+00
        24  0.000000E+00  0.000000E+00  0.000000E+00
        25  0.000000E+00  0.000000E+00  0.000000E+00
        26  0.000000E+00  0.000000E+00  0.000000E+00
        27  0.000000E+00  0.000000E+00  0.000000E+00
        28  0.000000E+00  0.000000E+00  0.000000E+00
        29  0.000000E+00  0.000000E+00  0.000000E+00
        30  0.000000E+00  0.000000E+00  0.000000E+00
        31  0.000000E+00  0.000000E+00  0.000000E+00
        32  0.000000E+00  0.000000E+00  0.000000E+00
        44 -1.009724E-06  9.831523E-06 -1.442926E-06
        45 -2.495114E-07  7.652482E-06 -2.323916E-06
        46  2.748540E-07  5.647750E-06 -2.657993E-06
        47 -3.218321E-07  2.289460E-06 -1.750681E-06
        48  3.217977E-07  2.289587E-06 -1.750587E-06
        49 -2.746765E-07  5.647445E-06 -2.657710E-06
        50  2.494193E-07  7.652834E-06 -2.324443E-06
        51  1.011704E-06  9.829691E-06 -1.443363E-06
        74  9.315761E-07  9.899699E-06  1.444053E-06
        75  2.055576E-07  7.693224E-06  2.326326E-06
        76 -2.524149E-07  5.627633E-06  2.658016E-06
        77  3.344896E-07  2.278083E-06  1.750261E-06
        89 -9.314849E-07  9.899845E-06  1.443662E-06
        90 -2.050541E-07  7.693565E-06  2.325907E-06
        91  2.523405E-07  5.627624E-06  2.658270E-06
        92 -3.344522E-07  2.278047E-06  1.750371E-06
        98  0.000000E+00  0.000000E+00  0.000000E+00
        99  0.000000E+00  0.000000E+00  0.000000E+00
       100  0.000000E+00  0.000000E+00  0.000000E+00
       101  0.000000E+00  0.000000E+00  0.000000E+00
       102  0.000000E+00  0.000000E+00  0.000000E+00
       124  5.720643E-08  9.135491E-06 -1.361128E-06
       125  3.334993E-10  1.086628E-05 -1.428159E-06
       126 -5.605382E-08  9.136429E-06 -1.362027E-06
       127  3.188782E-10  8.020364E-06 -2.574345E-06
       128 -2.777321E-08  5.896198E-06 -2.853951E-06
       129 -1.594158E-10  5.472032E-06 -2.912541E-06
       130  2.772942E-08  5.896360E-06 -2.853847E-06
       131 -1.007137E-11  2.309595E-06 -1.698652E-06
       153  8.116293E-07  1.181160E-05 -6.415139E-07
       154 -1.858014E-08  1.050362E-05  9.024924E-10
       155 -7.810504E-07  1.185283E-05  6.414845E-07
       156 -5.225393E-10  8.662312E-06  4.200627E-09
       157 -1.633368E-07  4.891546E-06 -1.144233E-06
       158  2.688687E-09  4.989255E-06  1.600331E-09
       159  1.569545E-07  4.880369E-06  1.143961E-06
       160  3.848024E-10  1.892288E-06  2.956386E-10
       182  1.307690E-08  9.114559E-06  1.361247E-06
       183  5.037335E-10  1.088664E-05  1.429678E-06
       184 -1.256883E-08  9.114389E-06  1.361292E-06
       185  1.144513E-10  8.013803E-06  2.565612E-06
       186 -1.616804E-08  5.901093E-06  2.854616E-06
       187  1.355116E-10  5.472055E-06  2.909001E-06
       188  1.627127E-08  5.901145E-06  2.854699E-06
       189 -3.649477E-12  2.311241E-06  1.698257E-06
       211  7.813044E-07  1.185334E-05  6.418474E-07
       212  1.959759E-08  1.050418E-05 -8.650598E-10
       213 -8.100663E-07  1.181089E-05 -6.420434E-07
       214  5.776012E-10  8.662060E-06  3.733865E-09
       215 -1.568013E-07  4.880487E-06  1.143699E-06
       216 -2.429467E-09  4.989613E-06  1.551105E-09
       217  1.635511E-07  4.891615E-06 -1.144286E-06
       218 -3.989478E-10  1.892287E-06  3.353546E-10
       250 -4.509974E-12  1.173834E-05 -6.371817E-07
       251 -5.983630E-09  7.437835E-06 -5.966391E-10