    1C
    1UUSER                                                              
    1UDATE              18.july.2018                                    
    1UTIME              00:08:38                                        
    1UHOST                                                              
    1UPGM               CalculiX                                        
    1UVERSION           Version 2.13                             
    1UCOMPILETIME       jue jun 14 00:40:39 CEST 2018                    
    1UDIR                                                               
    1UDBN                                                               
    1UMAT    1EL                                                        
    2C                            81                                     1
 -1         5 0.00000E+00 0.00000E+00 8.00000E+00
 -1         6 1.00000E+00 0.00000E+00 8.00000E+00
 -1         7 1.00000E+00 1.00000E+00 8.00000E+00
 -1         8 0.00000E+00 1.00000E+00 8.00000E+00
 -1        21 2.50000E-01 0.00000E+00 8.00000E+00
 -1        22 5.00000E-01 0.00000E+00 8.00000E+00
 -1        23 7.50000E-01 0.00000E+00 8.00000E+00
 -1        24 1.00000E+00 2.50000E-01 8.00000E+00
 -1        25 1.00000E+00 5.00000E-01 8.00000E+00
 -1        26 1.00000E+00 7.50000E-01 8.00000E+00
 -1        27 7.50000E-01 1.00000E+00 8.00000E+00
 -1        28 5.00000E-01 1.00000E+00 8.00000E+00
 -1        29 2.50000E-01 1.00000E+00 8.00000E+00
 -1        30 0.00000E+00 7.50000E-01 8.00000E+00
 -1        31 0.00000E+00 5.00000E-01 8.00000E+00
 -1        32 0.00000E+00 2.50000E-01 8.00000E+00
 -1        44 1.00000E+00 0.00000E+00 6.00000E+00
 -1        45 1.00000E+00 0.00000E+00 6.50000E+00
 -1        46 1.00000E+00 0.00000E+00 7.00000E+00
 -1        47 1.00000E+00 0.00000E+00 7.50000E+00
 -1        48 0.00000E+00 0.00000E+00 7.50000E+00
 -1        49 0.00000E+00 0.00000E+00 7.00000E+00
 -1        50 0.00000E+00 0.00000E+00 6.50000E+00
 -1        51 0.00000E+00 0.00000E+00 6.00000E+00
 -1        74 1.00000E+00 1.00000E+00 6.00000E+00
 -1        75 1.00000E+00 1.00000E+00 6.50000E+00
 -1        76 1.00000E+00 1.00000E+00 7.00000E+00
 -1        77 1.00000E+00 1.00000E+00 7.50000E+00
 -1        89 0.00000E+00 1.00000E+00 6.00000E+00
 -1        90 0.00000E+00 1.00000E+00 6.50000E+00
 -1        91 0.00000E+00 1.00000E+00 7.00000E+00
 -1        92 0.00000E+00 1.00000E+00 7.50000E+00
 -1        98 5.00000E-01 2.50000E-01 8.00000E+00
 -1        99 2.50000E-01 5.00000E-01 8.00000E+00
 -1       100 5.00000E-01 5.00000E-01 8.00000E+00
 -1       101 7.50000E-01 5.00000E-01 8.00000E+00
 -1       102 5.00000E-01 7.50000E-01 8.00000E+00
 -1       124 2.50000E-01 0.00000E+00 6.00000E+00
 -1       125 5.00000E-01 0.00000E+00 6.00000E+00
 -1       126 7.50000E-01 0.00000E+00 6.00000E+00
 -1       127 5.00000E-01 0.00000E+00 6.50000E+00
 -1       128 2.50000E-01 0.00000E+00 7.00000E+00
 -1       129 5.00000E-01 0.00000E+00 7.00000E+00
 -1       130 7.50000E-01 0.00000E+00 7.00000E+00
 -1       131 5.00000E-01 0.00000E+00 7.50000E+00
 -1       153 1.00000E+00 2.50000E-01 6.00000E+00
 -1       154 1.00000E+00 5.00000E-01 6.00000E+00
 -1       155 1.00000E+00 7.50000E-01 6.00000E+00
 -1       156 1.00000E+00 5.00000E-01 6.50000E+00
 -1       157 1.00000E+00 2.50000E-01 7.00000E+00
 -1       158 1.00000E+00 5.00000E-01 7.00000E+00
 -1       159 1.00000E+00 7.50000E-01 7.00000E+00
 -1       160 1.00000E+00 5.00000E-01 7.50000E+00
 -1       182 7.50000E-01 1.00000E+00 6.00000E+00
 -1       183 5.00000E-01 1.00000E+00 6.00000E+00
 -1       184 2.50000E-01 1.00000E+00 6.00000E+00
 -1       185 5.00000E-01 1.00000E+00 6.50000E+00
 -1       186 7.50000E-01 1.00000E+00 7.00000E+00
 -1       187 5.00000E-01 1.00000E+00 7.00000E+00
 -1       188 2.50000E-01 1.00000E+00 7.00000E+00
 -1       189 5.00000E-01 1.00000E+00 7.50000E+00
 -1       211 0.00000E+00 7.50000E-01 6.00000E+00
 -1       212 0.00000E+00 5.00000E-01 6.00000E+00
 -1       213 0.00000E+00 2.50000E-01 6.00000E+00
 -1       214 0.00000E+00 5.00000E-01 6.50000E+00
 -1       215 0.00000E+00 7.50000E-01 7.00000E+00
 -1       216 0.00000E+00 5.00000E-01 7.00000E+00
 -1       217 0.00000E+00 2.50000E-01 7.00000E+00
 -1       218 0.00000E+00 5.00000E-01 7.50000E+00
 -1       250 5.00000E-01 2.50000E-01 6.00000E+00
 -1       251 2.50000E-01 5.00000E-01 6.00000E+00
 -1       252 5.00000E-01 5.00000E-01 6.00000E+00
 -1       253 7.50000E-01 5.00000E-01 6.00000E+00
 -1       254 5.00000E-01 7.50000E-01 6.00000E+00
 -1       255 5.00000E-01 5.00000E-01 6.50000E+00
 -1       256 5.00000E-01 2.50000E-01 7.00000E+00
 -1       257 2.50000E-01 5.00000E-01 7.00000E+00
 -1       258 5.00000E-01 5.00000E-01 7.00000E+00
 -1       259 7.50000E-01 5.00000E-01 7.00000E+00
 -1       260 5.00000E-01 7.50000E-01 7.00000E+00
 -1       261 5.00000E-01 5.00000E-01 7.50000E+00
 -3
    3C                             8                                     1
 -1        25    4    0    1
 -2        51       125       252       212        49       129       258       216       124       250
 -2       251       213        50       127       255       214       128       256       257       217
 -1        26    4    0    1
 -2       125        44       154       252       129        46       158       258       126       153
 -2       253       250       127        45       156       255       130       157       259       256
 -1        27    4    0    1
 -2       212       252       183        89       216       258       187        91       251       254
 -2       184       211       214       255       185        90       257       260       188       215
 -1        28    4    0    1
 -2       252       154        74       183       258       158        76       187       253       155
 -2       182       254       255       156        75       185       259       159       186       260
 -1        29    4    0    1
 -2        49       129       258       216         5        22       100        31       128       256
 -2       257       217        48       131       261       218        21        98        99        32
 -1        30    4    0    1
 -2       129        46       158       258        22         6        25       100       130       157
 -2       259       256       131        47       160       261        23        24       101        98
 -1        31    4    0    1
 -2       216       258       187        91        31       100        28         8       257       260
 -2       188       215       218       261       189        92        99       102        29        30
 -1        32    4    0    1
 -2       258       158        76       187       100        25         7        28       259       159
 -2       186       260       261       160        77       189       101        26        27       102
 -3
    1PSTEP                         1           1           1          
  100CL  101 5.00000E-03          81                     1    1           1
 -4  DISP        4    1
 -5  D1          1    2    1    0
 -5  D2          1    2    2    0
 -5  D3          1    2    3    0
 -5  ALL         1    2    0    0    1ALL
 -1         5 0.00000E+00 0.00000E+00 0.00000E+00
 -1         6 0.00000E+00 0.00000E+00 0.00000E+00
 -1         7 0.00000E+00 0.00000E+00 0.00000E+00
 -1         8 0.00000E+00 0.00000E+00 0.00000E+00
 -1        21 0.00000E+00 0.00000E+00 0.00000E+00
 -1        22 0.00000E+00 0.00000E+00 0.00000E+00
 -1        23 0.00000E+00 0.00000E+00 0.00000E+00
 -1        24 0.00000E+00 0.00000E+00 0.00000E+00
 -1        25 0.00000E+00 0.00000E+00 0.00000E+00
 -1        26 0.00000E+00 0.00000E+00 0.00000E+00
 -1        27 0.00000E+00 0.00000E+00 0.00000E+00
 -1        28 0.00000E+00 0.00000E+00 0.00000E+00
 -1        29 0.00000E+00 0.00000E+00 0.00000E+00
 -1        30 0.00000E+00 0.00000E+00 0.00000E+00
 -1        31 0.00000E+00 0.00000E+00 0.00000E+00
 -1        32 0.00000E+00 0.00000E+00 0.00000E+00
 -1        44-5.99982E-04-3.46541E-02 4.48313E-03
 -1        45 5.65157E-04-2.56209E-02 7.85556E-03
 -1        46-4.77684E-04-1.79585E-02 9.49083E-03
 -1        47 1.30926E-03-6.75105E-03 5.43198E-03
 -1        48-1.30956E-03-6.75127E-03 5.43255E-03
 -1        49 4.76251E-04-1.79588E-02 9.49209E-03
 -1        50-5.67944E-04-2.56210E-02 7.85779E-03
 -1        51 5.93682E-04-3.46551E-02 4.48692E-03
 -1        74 3.17452E-03-4.40977E-02-4.94686E-03
 -1        75 1.90366E-03-2.97104E-02-7.85132E-03
 -1        76-1.10048E-03-1.59841E-02-9.50004E-03
 -1        77-2.07652E-03-5.27178E-03-5.58267E-03
 -1        89-3.18085E-03-4.40966E-02-4.94296E-03
 -1        90-1.90643E-03-2.97104E-02-7.84905E-03
 -1        91 1.09903E-03-1.59837E-02-9.49877E-03
 -1        92 2.07622E-03-5.27156E-03-5.58211E-03
 -1        98 0.00000E+00 0.00000E+00 0.00000E+00
 -1        99 0.00000E+00 0.00000E+00 0.00000E+00
 -1       100 0.00000E+00 0.00000E+00 0.00000E+00
 -1       101 0.00000E+00 0.00000E+00 0.00000E+00
 -1       102 0.00000E+00 0.00000E+00 0.00000E+00
 -1       124 1.48687E-03-2.96635E-02 4.29730E-03
 -1       125-2.49512E-06-3.58886E-02 4.48667E-03
 -1       126-1.49237E-03-2.96630E-02 4.29591E-03
 -1       127-1.59957E-06-2.56265E-02 9.03238E-03
 -1       128-9.09171E-05-1.95274E-02 9.48180E-03
 -1       129-4.73337E-07-1.81440E-02 9.41539E-03
 -1       130 8.97368E-05-1.95272E-02 9.48106E-03
 -1       131-9.64463E-08-7.36400E-03 5.56335E-03
 -1       153 6.92398E-04-3.63725E-02 1.91050E-03
 -1       154-1.20340E-03-2.50519E-02-2.11016E-04
 -1       155-6.51097E-04-3.88971E-02-2.38232E-03
 -1       156-1.20037E-03-2.78898E-02-6.46094E-04
 -1       157-2.05500E-04-1.50926E-02 3.92218E-03
 -1       158 8.81389E-04-1.56749E-02-2.94364E-04
 -1       159 4.65857E-04-1.47601E-02-4.11100E-03
 -1       160 3.97025E-04-6.56491E-03 4.85958E-05
 -1       182 1.14205E-03-2.56391E-02-4.71275E-03
 -1       183-2.48972E-06-4.35291E-02-4.76409E-03
 -1       184-1.14757E-03-2.56386E-02-4.71133E-03
 -1       185-1.59609E-06-2.83276E-02-8.73822E-03
 -1       186-4.39990E-04-2.16199E-02-9.82679E-03
 -1       187-4.73300E-07-1.83208E-02-9.63799E-03
 -1       188 4.38806E-04-2.16197E-02-9.82604E-03
 -1       189-9.72184E-08-7.20080E-03-5.64497E-03
 -1       211 6.43812E-04-3.88966E-02-2.37871E-03
 -1       212 1.19570E-03-2.50519E-02-2.06952E-04
 -1       213-6.99616E-04-3.63730E-02 1.91407E-03
 -1       214 1.19784E-03-2.78898E-02-6.43751E-04
 -1       215-4.67486E-04-1.47600E-02-4.10966E-03
 -1       216-8.83245E-04-1.56749E-02-2.93130E-04
 -1       217 2.03868E-04-1.50928E-02 3.92351E-03
 -1       218-3.97402E-04-6.56490E-03 4.90139E-05
 -1       250-2.47717E-06-4.08024E-02 1.74468E-03
 -1       251 2.99788E-04-2.57207E-02-1.04965E-04
 -1       252-2.44821E-06-3.12246E-02-1.59946E-04
 -1       253-3.05980E-04-2.57208E-02-1.05706E-04
 -1       254-2.48621E-06-4.41072E-02-2.54057E-03
 -1       255-1.78404E-06-2.59993E-02-3.20291E-04
 -1       256-4.52596E-07-1.60722E-02 3.95689E-03
 -1       257-4.11238E-04-1.74942E-02-1.19810E-04
 -1       258-4.00511E-07-1.78971E-02-1.45553E-04
 -1       259 4.09941E-04-1.74942E-02-1.20707E-04
 -1       260-4.49756E-07-1.62250E-02-4.18371E-03
 -1       261-1.72804E-07-7.16983E-03-1.96403E-05
 -3
    1PSTEP                         2           2           1          
  100CL  102 1.00000E-02          81                     1    2           1
 -4  DISP        4    1
 -5  D1          1    2    1    0
 -5  D2          1    2    2    0
 -5  D3          1    2    3    0
 -5  ALL         1    2    0    0    1ALL
 -1         5 0.00000E+00 0.00000E+00 0.00000E+00
 -1         6 0.00000E+00 0.00000E+00 0.00000E+00
 -1         7 0.00000E+00 0.00000E+00 0.00000E+00
 -1         8 0.00000E+00 0.00000E+00 0.00000E+00
 -1        21 0.00000E+00 0.00000E+00 0.00000E+00
 -1        22 0.00000E+00 0.00000E+00 0.00000E+00
 -1        23 0.00000E+00 0.00000E+00 0.00000E+00
 -1        24 0.00000E+00 0.00000E+00 0.00000E+00
 -1        25 0.00000E+00 0.00000E+00 0.00000E+00
 -1        26 0.00000E+00 0.00000E+00 0.00000E+00
 -1        27 0.00000E+00 0.00000E+00 0.00000E+00
 -1        28 0.00000E+00 0.00000E+00 0.00000E+00
 -1        29 0.00000E+00 0.00000E+00 0.00000E+00
 -1        30 0.00000E+00 0.00000E+00 0.00000E+00
 -1        31 0.00000E+00 0.00000E+00 0.00000E+00
 -1        32 0.00000E+00 0.00000E+00 0.00000E+00
 -1        44-1.62056E-03 1.59912E-02-2.34037E-03
 -1        45-4.04670E-04 1.24446E-02-3.77002E-03
 -1        46 4.39498E-04 9.16333E-03-4.32227E-03
 -1        47-5.25118E-04 3.71415E-03-2.84246E-03
 -1        48 5.25304E-04 3.71413E-03-2.84255E-03
 -1        49-4.38824E-04 9.16294E-03-4.32253E-03
 -1        50 4.05228E-04 1.24448E-02-3.77067E-03
 -1        51 1.62163E-03 1.59911E-02-2.34064E-03
 -1        74 1.48607E-03 1.61770E-02 2.34309E-03
 -1        75 3.21926E-04 1.25400E-02 3.77069E-03
 -1        76-4.07269E-04 9.12688E-03 4.32135E-03
 -1        77 5.48305E-04 3.68602E-03 2.84300E-03
 -1        89-1.48519E-03 1.61752E-02 2.34180E-03
 -1        90-3.22023E-04 1.25397E-02 3.76989E-03
 -1        91 4.07825E-04 9.12661E-03 4.32123E-03
 -1        92-5.48280E-04 3.68597E-03 2.84308E-03
 -1        98 0.00000E+00 0.00000E+00 0.00000E+00
 -1        99 0.00000E+00 0.00000E+00 0.00000E+00
 -1       100 0.00000E+00 0.00000E+00 0.00000E+00
 -1       101 0.00000E+00 0.00000E+00 0.00000E+00
 -1       102 0.00000E+00 0.00000E+00 0.00000E+00
 -1       124 1.20265E-04 1.48280E-02-2.20617E-03
 -1       125 2.99405E-07 1.76756E-02-2.31326E-03
 -1       126-1.19297E-04 1.48284E-02-2.20613E-03
 -1       127 5.06213E-07 1.30304E-02-4.18708E-03
 -1       128-4.96921E-05 9.58618E-03-4.63619E-03
 -1       129 9.29689E-08 8.89610E-03-4.72908E-03
 -1       130 5.00773E-05 9.58629E-03-4.63604E-03
 -1       131 9.87616E-08 3.75200E-03-2.76023E-03
 -1       153 1.29469E-03 1.91048E-02-1.03979E-03
 -1       154-1.15421E-05 1.69608E-02 2.58524E-06
 -1       155-1.25444E-03 1.92773E-02 1.04144E-03
 -1       156 1.05811E-05 1.40696E-02 1.09494E-05
 -1       157-2.59351E-04 7.94994E-03-1.85996E-03
 -1       158 2.99921E-08 8.10419E-03 4.37176E-06
 -1       159 2.50097E-04 7.91479E-03 1.86041E-03
 -1       160-3.45084E-06 3.08166E-03-2.09942E-07
 -1       182-3.04577E-05 1.47597E-02 2.20809E-03
 -1       183-2.67208E-07 1.77734E-02 2.31630E-03
 -1       184 3.07700E-05 1.47592E-02 2.20811E-03
 -1       185 3.55397E-07 1.30463E-02 4.17096E-03
 -1       186-1.58420E-05 9.60736E-03 4.63892E-03
 -1       187-1.05521E-07 8.88130E-03 4.72523E-03
 -1       188 1.59624E-05 9.60715E-03 4.63869E-03
 -1       189 4.06459E-08 3.75102E-03 2.76045E-03
 -1       211 1.25570E-03 1.92762E-02 1.04117E-03
 -1       212 1.24983E-05 1.69610E-02 1.32521E-06
 -1       213-1.29324E-03 1.91052E-02-1.04040E-03
 -1       214-9.67787E-06 1.40692E-02 1.05198E-05
 -1       215-2.49806E-04 7.91473E-03 1.86003E-03
 -1       216 1.34137E-07 8.10422E-03 4.15142E-06
 -1       217 2.59693E-04 7.94969E-03-1.86026E-03
 -1       218 3.59242E-06 3.08156E-03-3.99289E-07
 -1       250 6.85967E-07 1.91404E-02-1.02992E-03
 -1       251-5.68999E-05 1.21000E-02-6.17415E-07
 -1       252 1.24061E-06 1.54186E-02-2.69634E-07
 -1       253 5.85576E-05 1.20999E-02 3.47737E-07
 -1       254 4.36272E-07 1.90539E-02 1.03667E-03
 -1       255 2.80344E-07 1.37539E-02 1.52060E-06
 -1       256 2.12630E-07 7.82385E-03-2.07469E-03
 -1       257 1.44367E-05 9.14395E-03 2.34846E-07
 -1       258 2.86470E-07 8.12494E-03 7.81053E-07
 -1       259-1.40506E-05 9.14393E-03 2.58535E-07
 -1       260 1.04776E-07 7.84605E-03 2.07615E-03
 -1       261-6.71489E-09 3.48616E-03 2.78192E-07
 -3
    1PSTEP                         3           3           1          
  100CL  103 1.50000E-02          81                     1    3           1
 -4  DISP        4    1
 -5  D1          1    2    1    0
 -5  D2          1    2    2    0
 -5  D3          1    2    3    0
 -5  ALL         1    2    0    0    1ALL
 -1         5 0.00000E+00 0.00000E+00 0.00000E+00
 -1         6 0.00000E+00 0.00000E+00 0.00000E+00
 -1         7 0.00000E+00 0.00000E+00 0.00000E+00
 -1         8 0.00000E+00 0.00000E+00 0.00000E+00
 -1        21 0.00000E+00 0.00000E+00 0.00000E+00
 -1        22 0.00000E+00 0.00000E+00 0.00000E+00
 -1        23 0.00000E+00 0.00000E+00 0.00000E+00
 -1        24 0.00000E+00 0.00000E+00 0.00000E+00
 -1        25 0.00000E+00 0.00000E+00 0.00000E+00
 -1        26 0.00000E+00 0.00000E+00 0.00000E+00
 -1        27 0.00000E+00 0.00000E+00 0.00000E+00
 -1        28 0.00000E+00 0.00000E+00 0.00000E+00
 -1        29 0.00000E+00 0.00000E+00 0.00000E+00
 -1        30 0.00000E+00 0.00000E+00 0.00000E+00
 -1        31 0.00000E+00 0.00000E+00 0.00000E+00
 -1        32 0.00000E+00 0.00000E+00 0.00000E+00
 -1        44 1.24779E-03-1.27032E-02 1.85321E-03
 -1        45 2.93751E-04-9.88538E-03 2.98501E-03
 -1        46-3.37508E-04-7.24378E-03 3.41950E-03
 -1        47 4.22488E-04-2.93608E-03 2.25145E-03
 -1        48-4.22422E-04-2.93617E-03 2.25158E-03
 -1        49 3.37855E-04-7.24392E-03 3.41962E-03
 -1        50-2.93989E-04-9.88544E-03 2.98491E-03
 -1        51-1.24755E-03-1.27029E-02 1.85308E-03
 -1        74-1.26442E-03-1.26785E-02-1.85414E-03
 -1        75-3.03956E-04-9.87271E-03-2.98618E-03
 -1        76 3.44677E-04-7.25290E-03-3.41990E-03
 -1        77-4.19607E-04-2.93992E-03-2.25139E-03
 -1        89 1.26306E-03-1.26790E-02-1.85318E-03
 -1        90 3.03808E-04-9.87314E-03-2.98601E-03
 -1        91-3.44831E-04-7.25286E-03-3.42008E-03
 -1        92 4.19593E-04-2.93994E-03-2.25147E-03
 -1        98 0.00000E+00 0.00000E+00 0.00000E+00
 -1        99 0.00000E+00 0.00000E+00 0.00000E+00
 -1       100 0.00000E+00 0.00000E+00 0.00000E+00
 -1       101 0.00000E+00 0.00000E+00 0.00000E+00
 -1       102 0.00000E+00 0.00000E+00 0.00000E+00
 -1       124-5.90122E-05-1.17263E-02 1.74702E-03
 -1       125-3.95098E-07-1.40018E-02 1.83117E-03
 -1       126 5.88710E-05-1.17261E-02 1.74653E-03
 -1       127 1.71813E-07-1.03085E-02 3.30503E-03
 -1       128 3.08821E-05-7.59519E-03 3.67077E-03
 -1       129-6.61293E-08-7.04932E-03 3.74328E-03
 -1       130-3.08116E-05-7.59519E-03 3.67081E-03
 -1       131 6.45506E-08-2.97527E-03 2.18630E-03
 -1       153-1.01663E-03-1.51735E-02 8.23547E-04
 -1       154-3.79071E-07-1.34669E-02-3.58240E-08
 -1       155 1.02004E-03-1.51775E-02-8.24133E-04
 -1       156 2.16378E-06-1.11442E-02 1.11484E-06
 -1       157 2.03765E-04-6.28921E-03 1.47309E-03
 -1       158-1.48547E-06-6.41884E-03 5.08675E-07
 -1       159-2.04619E-04-6.28977E-03-1.47325E-03
 -1       160-4.54390E-07-2.43883E-03 1.19743E-07
 -1       182-5.26489E-05-1.17362E-02-1.74670E-03
 -1       183-3.35252E-07-1.39877E-02-1.83214E-03
 -1       184 5.18104E-05-1.17363E-02-1.74694E-03
 -1       185-2.05534E-07-1.03067E-02-3.30736E-03
 -1       186 3.07174E-05-7.59325E-03-3.67095E-03
 -1       187-2.07398E-08-7.05104E-03-3.74413E-03
 -1       188-3.08510E-05-7.59329E-03-3.67091E-03
 -1       189-5.00706E-09-2.97638E-03-2.18667E-03
 -1       211-1.02087E-03-1.51781E-02-8.24011E-04
 -1       212-3.31001E-08-1.34673E-02 7.18788E-08
 -1       213 1.01665E-03-1.51734E-02 8.23865E-04
 -1       214-1.96512E-06-1.11443E-02 1.26060E-06
 -1       215 2.04440E-04-6.28977E-03-1.47321E-03
 -1       216 1.29143E-06-6.41896E-03 5.51208E-07
 -1       217-2.03712E-04-6.28938E-03 1.47309E-03
 -1       218 4.70539E-07-2.43887E-03 5.11330E-08
 -1       250-3.09348E-08-1.51231E-02 8.16474E-04
 -1       251 4.77039E-06-9.57277E-03-2.82944E-07
 -1       252 4.11820E-07-1.22023E-02-2.92761E-07
 -1       253-4.65158E-06-9.57261E-03-7.06311E-08
 -1       254 1.96778E-08-1.51082E-02-8.17201E-04
 -1       255-8.74339E-08-1.08983E-02-1.37546E-09
 -1       256 3.50406E-08-6.20295E-03 1.64283E-03
 -1       257-3.73349E-07-7.24528E-03-4.56795E-08
 -1       258 1.17270E-07-6.43008E-03-3.73013E-08
 -1       259 4.24021E-07-7.24522E-03-1.28589E-07
 -1       260 5.25774E-08-6.20563E-03-1.64280E-03
 -1       261-2.91075E-08-2.76124E-03 4.79390E-08
 -3
    1PSTEP                         4           4           1          
  100CL  104 2.00000E-02          81                     1    4           1
 -4  DISP        4    1
 -5  D1          1    2    1    0
 -5  D2          1    2    2    0
 -5  D3          1    2    3    0
 -5  ALL         1    2    0    0    1ALL
 -1         5 0.00000E+00 0.00000E+00 0.00000E+00
 -1         6 0.00000E+00 0.00000E+00 0.00000E+00
 -1         7 0.00000E+00 0.00000E+00 0.00000E+00
 -1         8 0.00000E+00 0.00000E+00 0.00000E+00
 -1        21 0.00000E+00 0.00000E+00 0.00000E+00
 -1        22 0.00000E+00 0.00000E+00 0.00000E+00
 -1        23 0.00000E+00 0.00000E+00 0.00000E+00
 -1        24 0.00000E+00 0.00000E+00 0.00000E+00
 -1        25 0.00000E+00 0.00000E+00 0.00000E+00
 -1        26 0.00000E+00 0.00000E+00 0.00000E+00
 -1        27 0.00000E+00 0.00000E+00 0.00000E+00
 -1        28 0.00000E+00 0.00000E+00 0.00000E+00
 -1        29 0.00000E+00 0.00000E+00 0.00000E+00
 -1        30 0.00000E+00 0.00000E+00 0.00000E+00
 -1        31 0.00000E+00 0.00000E+00 0.00000E+00
 -1        32 0.00000E+00 0.00000E+00 0.00000E+00
 -1        44-1.02680E-03 9.80724E-03-1.44011E-03
 -1        45-2.58315E-04 7.64038E-03-2.31718E-03
 -1        46 2.75522E-04 5.63994E-03-2.65437E-03
 -1        47-3.19832E-04 2.28865E-03-1.74894E-03
 -1        48 3.19737E-04 2.28850E-03-1.74853E-03
 -1        49-2.75526E-04 5.63956E-03-2.65373E-03
 -1        50 2.56544E-04 7.64063E-03-2.31668E-03
 -1        51 1.02518E-03 9.80703E-03-1.43913E-03
 -1        74 9.35434E-04 9.91374E-03 1.43892E-03
 -1        75 2.04523E-04 7.69743E-03 2.31586E-03
 -1        76-2.58098E-04 5.61888E-03 2.65276E-03
 -1        77 3.33834E-04 2.27266E-03 1.74856E-03
 -1        89-9.39418E-04 9.91201E-03 1.44002E-03
 -1        90-2.06009E-04 7.69730E-03 2.31633E-03
 -1        91 2.57588E-04 5.61891E-03 2.65341E-03
 -1        92-3.33956E-04 2.27275E-03 1.74894E-03
 -1        98 0.00000E+00 0.00000E+00 0.00000E+00
 -1        99 0.00000E+00 0.00000E+00 0.00000E+00
 -1       100 0.00000E+00 0.00000E+00 0.00000E+00
 -1       101 0.00000E+00 0.00000E+00 0.00000E+00
 -1       102 0.00000E+00 0.00000E+00 0.00000E+00
 -1       124 8.47945E-05 9.12107E-03-1.35577E-03
 -1       125-1.67261E-06 1.08640E-02-1.42296E-03
 -1       126-8.71027E-05 9.12174E-03-1.35699E-03
 -1       127-3.26697E-07 8.01584E-03-2.57355E-03
 -1       128-3.31778E-05 5.89164E-03-2.84955E-03
 -1       129-4.73225E-07 5.46751E-03-2.90840E-03
 -1       130 3.26645E-05 5.89173E-03-2.84970E-03
 -1       131 2.73396E-08 2.30677E-03-1.69672E-03
 -1       153 8.12771E-04 1.17484E-02-6.40188E-04
 -1       154-1.25391E-05 1.04610E-02-3.26375E-08
 -1       155-7.88101E-04 1.18650E-02 6.38234E-04
 -1       156 3.87345E-06 8.65002E-03 5.37200E-06
 -1       157-1.63742E-04 4.89346E-03-1.14281E-03
 -1       158 1.91210E-06 4.98681E-03 2.00169E-06
 -1       159 1.57414E-04 4.86890E-03 1.14176E-03
 -1       160-1.55583E-06 1.89371E-03-1.06736E-07
 -1       182-2.49133E-05 9.08321E-03 1.35631E-03
 -1       183-1.57502E-06 1.09132E-02 1.42433E-03
 -1       184 2.16241E-05 9.08262E-03 1.35655E-03
 -1       185-7.50083E-07 8.01939E-03 2.56291E-03
 -1       186-9.82068E-06 5.90007E-03 2.85010E-03
 -1       187-2.64650E-07 5.45477E-03 2.90452E-03
 -1       188 9.24707E-06 5.90002E-03 2.85047E-03
 -1       189-2.86477E-08 2.30609E-03 1.69644E-03
 -1       211 7.84887E-04 1.18638E-02 6.40166E-04
 -1       212 9.61032E-06 1.04609E-02 4.57015E-07
 -1       213-8.14594E-04 1.17486E-02-6.39221E-04
 -1       214-4.77661E-06 8.64967E-03 6.21936E-06
 -1       215-1.58166E-04 4.86904E-03 1.14213E-03
 -1       216-2.76679E-06 4.98693E-03 2.60554E-06
 -1       217 1.63211E-04 4.89326E-03-1.14226E-03
 -1       218 1.41965E-06 1.89366E-03 5.79023E-08
 -1       250-1.11903E-06 1.17573E-02-6.34400E-04
 -1       251-4.23480E-05 7.43575E-03-5.45467E-07
 -1       252-3.04099E-07 9.47264E-03-3.02476E-07
 -1       253 4.05390E-05 7.43576E-03-1.18713E-07
 -1       254-9.72169E-07 1.16852E-02 6.35896E-04
 -1       255-7.39317E-07 8.46130E-03 1.85533E-07
 -1       256-2.52370E-07 4.80819E-03-1.27647E-03
 -1       257 8.94236E-06 5.62498E-03 6.67314E-11
 -1       258-7.48167E-08 4.98984E-03 5.48398E-08
 -1       259-9.40336E-06 5.62493E-03-4.57949E-07
 -1       260-1.69938E-07 4.82316E-03 1.27690E-03
 -1       261-1.18607E-07 2.14326E-03 1.46954E-07
 -3
    1PSTEP                         5           5           1          
  100CL  105 2.50000E-02          81                     1    5           1
 -4  DISP        4    1
 -5  D1          1    2    1    0
 -5  D2          1    2    2    0
 -5  D3          1    2    3    0
 -5  ALL         1    2    0    0    1ALL
 -1         5 0.00000E+00 0.00000E+00 0.00000E+00
 -1         6 0.00000E+00 0.00000E+00 0.00000E+00
 -1         7 0.00000E+00 0.00000E+00 0.00000E+00
 -1         8 0.00000E+00 0.00000E+00 0.00000E+00
 -1        21 0.00000E+00 0.00000E+00 0.00000E+00
 -1        22 0.00000E+00 0.00000E+00 0.00000E+00
 -1        23 0.00000E+00 0.00000E+00 0.00000E+00
 -1        24 0.00000E+00 0.00000E+00 0.00000E+00
 -1        25 0.00000E+00 0.00000E+00 0.00000E+00
 -1        26 0.00000E+00 0.00000E+00 0.00000E+00
 -1        27 0.00000E+00 0.00000E+00 0.00000E+00
 -1        28 0.00000E+00 0.00000E+00 0.00000E+00
 -1        29 0.00000E+00 0.00000E+00 0.00000E+00
 -1        30 0.00000E+00 0.00000E+00 0.00000E+00
 -1        31 0.00000E+00 0.00000E+00 0.00000E+00
 -1        32 0.00000E+00 0.00000E+00 0.00000E+00
 -1        44 6.96513E-04-7.48105E-03 1.08573E-03
 -1        45 1.56814E-04-5.80738E-03 1.75201E-03
 -1        46-1.89806E-04-4.23919E-03 2.00578E-03
 -1        47 2.52105E-04-1.71564E-03 1.31877E-03
 -1        48-2.52125E-04-1.71561E-03 1.31880E-03
 -1        49 1.89987E-04-4.23918E-03 2.00579E-03
 -1        50-1.57059E-04-5.80717E-03 1.75193E-03
 -1        51-6.96020E-04-7.48113E-03 1.08560E-03
 -1        74-7.05366E-04-7.46977E-03-1.08540E-03
 -1        75-1.62541E-04-5.80158E-03-1.75177E-03
 -1        76 1.91720E-04-4.24096E-03-2.00588E-03
 -1        77-2.50601E-04-1.71727E-03-1.31881E-03
 -1        89 7.05188E-04-7.47010E-03-1.08547E-03
 -1        90 1.62800E-04-5.80151E-03-1.75189E-03
 -1        91-1.91652E-04-4.24091E-03-2.00595E-03
 -1        92 2.50663E-04-1.71723E-03-1.31885E-03
 -1        98 0.00000E+00 0.00000E+00 0.00000E+00
 -1        99 0.00000E+00 0.00000E+00 0.00000E+00
 -1       100 0.00000E+00 0.00000E+00 0.00000E+00
 -1       101 0.00000E+00 0.00000E+00 0.00000E+00
 -1       102 0.00000E+00 0.00000E+00 0.00000E+00
 -1       124-2.01122E-05-6.86415E-03 1.02290E-03
 -1       125-2.45751E-07-8.21259E-03 1.07342E-03
 -1       126 2.01341E-05-6.86392E-03 1.02252E-03
 -1       127 1.18213E-07-6.04205E-03 1.93464E-03
 -1       128 1.49342E-05-4.45388E-03 2.15203E-03
 -1       129-1.10550E-07-4.12927E-03 2.19270E-03
 -1       130-1.49628E-05-4.45393E-03 2.15213E-03
 -1       131 1.08304E-08-1.74334E-03 1.28155E-03
 -1       153-5.80239E-04-8.91080E-03 4.82298E-04
 -1       154-1.39764E-06-7.88080E-03-9.71563E-08
 -1       155 5.83338E-04-8.89652E-03-4.82272E-04
 -1       156 6.26094E-07-6.53198E-03 5.14673E-07
 -1       157 1.16535E-04-3.68033E-03 8.63595E-04
 -1       158 2.55868E-07-3.75981E-03 2.97461E-07
 -1       159-1.17089E-04-3.68317E-03-8.63608E-04
 -1       160-1.41082E-07-1.42971E-03 3.45204E-08
 -1       182-3.28881E-05-6.86780E-03-1.02254E-03
 -1       183 1.71066E-07-8.20782E-03-1.07283E-03
 -1       184 3.30209E-05-6.86794E-03-1.02280E-03
 -1       185 1.78720E-08-6.04178E-03-1.93581E-03
 -1       186 1.77822E-05-4.45308E-03-2.15201E-03
 -1       187 1.14197E-07-4.13082E-03-2.19322E-03
 -1       188-1.76478E-05-4.45306E-03-2.15199E-03
 -1       189 2.53658E-08-1.74337E-03-1.28160E-03
 -1       211-5.83531E-04-8.89670E-03-4.82205E-04
 -1       212 1.24061E-06-7.88078E-03-1.30359E-09
 -1       213 5.80478E-04-8.91075E-03 4.82276E-04
 -1       214-3.50658E-07-6.53194E-03 5.28205E-07
 -1       215 1.17095E-04-3.68308E-03-8.63689E-04
 -1       216-3.30036E-07-3.75968E-03 2.42943E-07
 -1       217-1.16490E-04-3.68028E-03 8.63585E-04
 -1       218 1.72348E-07-1.42968E-03-3.24356E-08
 -1       250-1.55937E-08-8.86340E-03 4.78654E-04
 -1       251-4.99949E-06-5.60984E-03-1.24976E-07
 -1       252 2.83395E-07-7.16183E-03-5.13254E-08
 -1       253 5.16975E-06-5.60988E-03 1.05874E-07
 -1       254 2.46927E-07-8.87321E-03-4.78615E-04
 -1       255 2.92935E-09-6.38831E-03 7.13991E-08
 -1       256 6.79760E-11-3.63586E-03 9.62530E-04
 -1       257 1.15354E-06-4.24494E-03-2.55206E-08
 -1       258 9.43455E-08-3.76779E-03-2.01684E-08
 -1       259-1.08267E-06-4.24499E-03-6.25972E-08
 -1       260 9.96141E-08-3.63394E-03-9.62482E-04
 -1       261-5.22660E-09-1.61712E-03 8.75492E-09
 -3
    1PSTEP                         6           6           1          
  100CL  106 3.00000E-02          81                     1    6           1
 -4  DISP        4    1
 -5  D1          1    2    1    0
 -5  D2          1    2    2    0
 -5  D3          1    2    3    0
 -5  ALL         1    2    0    0    1ALL
 -1         5 0.00000E+00 0.00000E+00 0.00000E+00
 -1         6 0.00000E+00 0.00000E+00 0.00000E+00
 -1         7 0.00000E+00 0.00000E+00 0.00000E+00
 -1         8 0.00000E+00 0.00000E+00 0.00000E+00
 -1        21 0.00000E+00 0.00000E+00 0.00000E+00
 -1        22 0.00000E+00 0.00000E+00 0.00000E+00
 -1        23 0.00000E+00 0.00000E+00 0.00000E+00
 -1        24 0.00000E+00 0.00000E+00 0.00000E+00
 -1        25 0.00000E+00 0.00000E+00 0.00000E+00
 -1        26 0.00000E+00 0.00000E+00 0.00000E+00
 -1        27 0.00000E+00 0.00000E+00 0.00000E+00
 -1        28 0.00000E+00 0.00000E+00 0.00000E+00
 -1        29 0.00000E+00 0.00000E+00 0.00000E+00
 -1        30 0.00000E+00 0.00000E+00 0.00000E+00
 -1        31 0.00000E+00 0.00000E+00 0.00000E+00
 -1        32 0.00000E+00 0.00000E+00 0.00000E+00
 -1        44-5.19871E-04 5.40842E-03-7.86720E-04
 -1        45-1.20981E-04 4.20213E-03-1.26984E-03
 -1        46 1.41849E-04 3.07905E-03-1.45404E-03
 -1        47-1.80596E-04 1.24674E-03-9.56566E-04