    1C
    1UUSER                                                              
    1UDATE              18.july.2018                                    
    1UTIME              00:05:59                                        
    1UHOST                                                              
    1UPGM               CalculiX                                        
    1UVERSION           Version 2.13                             
    1UCOMPILETIME       jue jun 14 00:40:39 CEST 2018                    
    1UDIR                                                               
    1UDBN                                                               
    1UMAT    1EL                                                        
    2C                           201                                     1
 -1         1 0.00000E+00 0.00000E+00 0.00000E+00
 -1         2 1.00000E+00 0.00000E+00 0.00000E+00
 -1         3 1.00000E+00 1.00000E+00 0.00000E+00
 -1         4 0.00000E+00 1.00000E+00 0.00000E+00
 -1         9 2.50000E-01 0.00000E+00 0.00000E+00
 -1        10 5.00000E-01 0.00000E+00 0.00000E+00
 -1        11 7.50000E-01 0.00000E+00 0.00000E+00
 -1        12 1.00000E+00 2.50000E-01 0.00000E+00
 -1        13 1.00000E+00 5.00000E-01 0.00000E+00
 -1        14 1.00000E+00 7.50000E-01 0.00000E+00
 -1        15 7.50000E-01 1.00000E+00 0.00000E+00
 -1        16 5.00000E-01 1.00000E+00 0.00000E+00
 -1        17 2.50000E-01 1.00000E+00 0.00000E+00
 -1        18 0.00000E+00 7.50000E-01 0.00000E+00
 -1        19 0.00000E+00 5.00000E-01 0.00000E+00
 -1        20 0.00000E+00 2.50000E-01 0.00000E+00
 -1        33 1.00000E+00 0.00000E+00 5.00000E-01
 -1        34 1.00000E+00 0.00000E+00 1.00000E+00
 -1        35 1.00000E+00 0.00000E+00 1.50000E+00
 -1        36 1.00000E+00 0.00000E+00 2.00000E+00
 -1        37 1.00000E+00 0.00000E+00 2.50000E+00
 -1        38 1.00000E+00 0.00000E+00 3.00000E+00
 -1        39 1.00000E+00 0.00000E+00 3.50000E+00
 -1        40 1.00000E+00 0.00000E+00 4.00000E+00
 -1        41 1.00000E+00 0.00000E+00 4.50000E+00
 -1        42 1.00000E+00 0.00000E+00 5.00000E+00
 -1        43 1.00000E+00 0.00000E+00 5.50000E+00
 -1        44 1.00000E+00 0.00000E+00 6.00000E+00
 -1        51 0.00000E+00 0.00000E+00 6.00000E+00
 -1        52 0.00000E+00 0.00000E+00 5.50000E+00
 -1        53 0.00000E+00 0.00000E+00 5.00000E+00
 -1        54 0.00000E+00 0.00000E+00 4.50000E+00
 -1        55 0.00000E+00 0.00000E+00 4.00000E+00
 -1        56 0.00000E+00 0.00000E+00 3.50000E+00
 -1        57 0.00000E+00 0.00000E+00 3.00000E+00
 -1        58 0.00000E+00 0.00000E+00 2.50000E+00
 -1        59 0.00000E+00 0.00000E+00 2.00000E+00
 -1        60 0.00000E+00 0.00000E+00 1.50000E+00
 -1        61 0.00000E+00 0.00000E+00 1.00000E+00
 -1        62 0.00000E+00 0.00000E+00 5.00000E-01
 -1        63 1.00000E+00 1.00000E+00 5.00000E-01
 -1        64 1.00000E+00 1.00000E+00 1.00000E+00
 -1        65 1.00000E+00 1.00000E+00 1.50000E+00
 -1        66 1.00000E+00 1.00000E+00 2.00000E+00
 -1        67 1.00000E+00 1.00000E+00 2.50000E+00
 -1        68 1.00000E+00 1.00000E+00 3.00000E+00
 -1        69 1.00000E+00 1.00000E+00 3.50000E+00
 -1        70 1.00000E+00 1.00000E+00 4.00000E+00
 -1        71 1.00000E+00 1.00000E+00 4.50000E+00
 -1        72 1.00000E+00 1.00000E+00 5.00000E+00
 -1        73 1.00000E+00 1.00000E+00 5.50000E+00
 -1        74 1.00000E+00 1.00000E+00 6.00000E+00
 -1        78 0.00000E+00 1.00000E+00 5.00000E-01
 -1        79 0.00000E+00 1.00000E+00 1.00000E+00
 -1        80 0.00000E+00 1.00000E+00 1.50000E+00
 -1        81 0.00000E+00 1.00000E+00 2.00000E+00
 -1        82 0.00000E+00 1.00000E+00 2.50000E+00
 -1        83 0.00000E+00 1.00000E+00 3.00000E+00
 -1        84 0.00000E+00 1.00000E+00 3.50000E+00
 -1        85 0.00000E+00 1.00000E+00 4.00000E+00
 -1        86 0.00000E+00 1.00000E+00 4.50000E+00
 -1        87 0.00000E+00 1.00000E+00 5.00000E+00
 -1        88 0.00000E+00 1.00000E+00 5.50000E+00
 -1        89 0.00000E+00 1.00000E+00 6.00000E+00
 -1        93 5.00000E-01 2.50000E-01 0.00000E+00
 -1        94 2.50000E-01 5.00000E-01 0.00000E+00
 -1        95 5.00000E-01 5.00000E-01 0.00000E+00
 -1        96 7.50000E-01 5.00000E-01 0.00000E+00
 -1        97 5.00000E-01 7.50000E-01 0.00000E+00
 -1       103 5.00000E-01 0.00000E+00 5.00000E-01
 -1       104 2.50000E-01 0.00000E+00 1.00000E+00
 -1       105 5.00000E-01 0.00000E+00 1.00000E+00
 -1       106 7.50000E-01 0.00000E+00 1.00000E+00
 -1       107 5.00000E-01 0.00000E+00 1.50000E+00
 -1       108 2.50000E-01 0.00000E+00 2.00000E+00
 -1       109 5.00000E-01 0.00000E+00 2.00000E+00
 -1       110 7.50000E-01 0.00000E+00 2.00000E+00
 -1       111 5.00000E-01 0.00000E+00 2.50000E+00
 -1       112 2.50000E-01 0.00000E+00 3.00000E+00
 -1       113 5.00000E-01 0.00000E+00 3.00000E+00
 -1       114 7.50000E-01 0.00000E+00 3.00000E+00
 -1       115 5.00000E-01 0.00000E+00 3.50000E+00
 -1       116 2.50000E-01 0.00000E+00 4.00000E+00
 -1       117 5.00000E-01 0.00000E+00 4.00000E+00
 -1       118 7.50000E-01 0.00000E+00 4.00000E+00
 -1       119 5.00000E-01 0.00000E+00 4.50000E+00
 -1       120 2.50000E-01 0.00000E+00 5.00000E+00
 -1       121 5.00000E-01 0.00000E+00 5.00000E+00
 -1       122 7.50000E-01 0.00000E+00 5.00000E+00
 -1       123 5.00000E-01 0.00000E+00 5.50000E+00
 -1       124 2.50000E-01 0.00000E+00 6.00000E+00
 -1       125 5.00000E-01 0.00000E+00 6.00000E+00
 -1       126 7.50000E-01 0.00000E+00 6.00000E+00
 -1       132 1.00000E+00 5.00000E-01 5.00000E-01
 -1       133 1.00000E+00 2.50000E-01 1.00000E+00
 -1       134 1.00000E+00 5.00000E-01 1.00000E+00
 -1       135 1.00000E+00 7.50000E-01 1.00000E+00
 -1       136 1.00000E+00 5.00000E-01 1.50000E+00
 -1       137 1.00000E+00 2.50000E-01 2.00000E+00
 -1       138 1.00000E+00 5.00000E-01 2.00000E+00
 -1       139 1.00000E+00 7.50000E-01 2.00000E+00
 -1       140 1.00000E+00 5.00000E-01 2.50000E+00
 -1       141 1.00000E+00 2.50000E-01 3.00000E+00
 -1       142 1.00000E+00 5.00000E-01 3.00000E+00
 -1       143 1.00000E+00 7.50000E-01 3.00000E+00
 -1       144 1.00000E+00 5.00000E-01 3.50000E+00
 -1       145 1.00000E+00 2.50000E-01 4.00000E+00
 -1       146 1.00000E+00 5.00000E-01 4.00000E+00
 -1       147 1.00000E+00 7.50000E-01 4.00000E+00
 -1       148 1.00000E+00 5.00000E-01 4.50000E+00
 -1       149 1.00000E+00 2.50000E-01 5.00000E+00
 -1       150 1.00000E+00 5.00000E-01 5.00000E+00
 -1       151 1.00000E+00 7.50000E-01 5.00000E+00
 -1       152 1.00000E+00 5.00000E-01 5.50000E+00
 -1       153 1.00000E+00 2.50000E-01 6.00000E+00
 -1       154 1.00000E+00 5.00000E-01 6.00000E+00
 -1       155 1.00000E+00 7.50000E-01 6.00000E+00
 -1       161 5.00000E-01 1.00000E+00 5.00000E-01
 -1       162 7.50000E-01 1.00000E+00 1.00000E+00
 -1       163 5.00000E-01 1.00000E+00 1.00000E+00
 -1       164 2.50000E-01 1.00000E+00 1.00000E+00
 -1       165 5.00000E-01 1.00000E+00 1.50000E+00
 -1       166 7.50000E-01 1.00000E+00 2.00000E+00
 -1       167 5.00000E-01 1.00000E+00 2.00000E+00
 -1       168 2.50000E-01 1.00000E+00 2.00000E+00
 -1       169 5.00000E-01 1.00000E+00 2.50000E+00
 -1       170 7.50000E-01 1.00000E+00 3.00000E+00
 -1       171 5.00000E-01 1.00000E+00 3.00000E+00
 -1       172 2.50000E-01 1.00000E+00 3.00000E+00
 -1       173 5.00000E-01 1.00000E+00 3.50000E+00
 -1       174 7.50000E-01 1.00000E+00 4.00000E+00
 -1       175 5.00000E-01 1.00000E+00 4.00000E+00
 -1       176 2.50000E-01 1.00000E+00 4.00000E+00
 -1       177 5.00000E-01 1.00000E+00 4.50000E+00
 -1       178 7.50000E-01 1.00000E+00 5.00000E+00
 -1       179 5.00000E-01 1.00000E+00 5.00000E+00
 -1       180 2.50000E-01 1.00000E+00 5.00000E+00
 -1       181 5.00000E-01 1.00000E+00 5.50000E+00
 -1       182 7.50000E-01 1.00000E+00 6.00000E+00
 -1       183 5.00000E-01 1.00000E+00 6.00000E+00
 -1       184 2.50000E-01 1.00000E+00 6.00000E+00
 -1       190 0.00000E+00 5.00000E-01 5.00000E-01
 -1       191 0.00000E+00 7.50000E-01 1.00000E+00
 -1       192 0.00000E+00 5.00000E-01 1.00000E+00
 -1       193 0.00000E+00 2.50000E-01 1.00000E+00
 -1       194 0.00000E+00 5.00000E-01 1.50000E+00
 -1       195 0.00000E+00 7.50000E-01 2.00000E+00
 -1       196 0.00000E+00 5.00000E-01 2.00000E+00
 -1       197 0.00000E+00 2.50000E-01 2.00000E+00
 -1       198 0.00000E+00 5.00000E-01 2.50000E+00
 -1       199 0.00000E+00 7.50000E-01 3.00000E+00
 -1       200 0.00000E+00 5.00000E-01 3.00000E+00
 -1       201 0.00000E+00 2.50000E-01 3.00000E+00
 -1       202 0.00000E+00 5.00000E-01 3.50000E+00
 -1       203 0.00000E+00 7.50000E-01 4.00000E+00
 -1       204 0.00000E+00 5.00000E-01 4.00000E+00
 -1       205 0.00000E+00 2.50000E-01 4.00000E+00
 -1       206 0.00000E+00 5.00000E-01 4.50000E+00
 -1       207 0.00000E+00 7.50000E-01 5.00000E+00
 -1       208 0.00000E+00 5.00000E-01 5.00000E+00
 -1       209 0.00000E+00 2.50000E-01 5.00000E+00
 -1       210 0.00000E+00 5.00000E-01 5.50000E+00
 -1       211 0.00000E+00 7.50000E-01 6.00000E+00
 -1       212 0.00000E+00 5.00000E-01 6.00000E+00
 -1       213 0.00000E+00 2.50000E-01 6.00000E+00
 -1       219 5.00000E-01 5.00000E-01 5.00000E-01
 -1       220 5.00000E-01 2.50000E-01 1.00000E+00
 -1       221 2.50000E-01 5.00000E-01 1.00000E+00
 -1       222 5.00000E-01 5.00000E-01 1.00000E+00
 -1       223 7.50000E-01 5.00000E-01 1.00000E+00
 -1       224 5.00000E-01 7.50000E-01 1.00000E+00
 -1       225 5.00000E-01 5.00000E-01 1.50000E+00
 -1       226 5.00000E-01 2.50000E-01 2.00000E+00
 -1       227 2.50000E-01 5.00000E-01 2.00000E+00
 -1       228 5.00000E-01 5.00000E-01 2.00000E+00
 -1       229 7.50000E-01 5.00000E-01 2.00000E+00
 -1       230 5.00000E-01 7.50000E-01 2.00000E+00
 -1       231 5.00000E-01 5.00000E-01 2.50000E+00
 -1       232 5.00000E-01 2.50000E-01 3.00000E+00
 -1       233 2.50000E-01 5.00000E-01 3.00000E+00
 -1       234 5.00000E-01 5.00000E-01 3.00000E+00
 -1       235 7.50000E-01 5.00000E-01 3.00000E+00
 -1       236 5.00000E-01 7.50000E-01 3.00000E+00
 -1       237 5.00000E-01 5.00000E-01 3.50000E+00
 -1       238 5.00000E-01 2.50000E-01 4.00000E+00
 -1       239 2.50000E-01 5.00000E-01 4.00000E+00
 -1       240 5.00000E-01 5.00000E-01 4.00000E+00
 -1       241 7.50000E-01 5.00000E-01 4.00000E+00
 -1       242 5.00000E-01 7.50000E-01 4.00000E+00
 -1       243 5.00000E-01 5.00000E-01 4.50000E+00
 -1       244 5.00000E-01 2.50000E-01 5.00000E+00
 -1       245 2.50000E-01 5.00000E-01 5.00000E+00
 -1       246 5.00000E-01 5.00000E-01 5.00000E+00
 -1       247 7.50000E-01 5.00000E-01 5.00000E+00
 -1       248 5.00000E-01 7.50000E-01 5.00000E+00
 -1       249 5.00000E-01 5.00000E-01 5.50000E+00
 -1       250 5.00000E-01 2.50000E-01 6.00000E+00
 -1       251 2.50000E-01 5.00000E-01 6.00000E+00
 -1       252 5.00000E-01 5.00000E-01 6.00000E+00
 -1       253 7.50000E-01 5.00000E-01 6.00000E+00
 -1       254 5.00000E-01 7.50000E-01 6.00000E+00
 -3
    3C                            24                                     1
 -1         1    4    0    1
 -2         1        10        95        19        61       105       222       192         9        93
 -2        94        20        62       103       219       190       104       220       221       193
 -1         2    4    0    1
 -2        10         2        13        95       105        34       134       222        11        12
 -2        96        93       103        33       132       219       106       133       223       220
 -1         3    4    0    1
 -2        19        95        16         4       192       222       163        79        94        97
 -2        17        18       190       219       161        78       221       224       164       191
 -1         4    4    0    1
 -2        95        13         3        16       222       134        64       163        96        14
 -2        15        97       219       132        63       161       223       135       162       224
 -1         5    4    0    1
 -2        61       105       222       192        59       109       228       196       104       220
 -2       221       193        60       107       225       194       108       226       227       197
 -1         6    4    0    1
 -2       105        34       134       222       109        36       138       228       106       133
 -2       223       220       107        35       136       225       110       137       229       226
 -1         7    4    0    1
 -2       192       222       163        79       196       228       167        81       221       224
 -2       164       191       194       225       165        80       227       230       168       195
 -1         8    4    0    1
 -2       222       134        64       163       228       138        66       167       223       135
 -2       162       224       225       136        65       165       229       139       166       230
 -1         9    4    0    1
 -2        59       109       228       196        57       113       234       200       108       226
 -2       227       197        58       111       231       198       112       232       233       201
 -1        10    4    0    1
 -2       109        36       138       228       113        38       142       234       110       137
 -2       229       226       111        37       140       231       114       141       235       232
 -1        11    4    0    1
 -2       196       228       167        81       200       234       171        83       227       230
 -2       168       195       198       231       169        82       233       236       172       199
 -1        12    4    0    1
 -2       228       138        66       167       234       142        68       171       229       139
 -2       166       230       231       140        67       169       235       143       170       236
 -1        13    4    0    1
 -2        57       113       234       200        55       117       240       204       112       232
 -2       233       201        56       115       237       202       116       238       239       205
 -1        14    4    0    1
 -2       113        38       142       234       117        40       146       240       114       141
 -2       235       232       115        39       144       237       118       145       241       238
 -1        15    4    0    1
 -2       200       234       171        83       204       240       175        85       233       236
 -2       172       199       202       237       173        84       239       242       176       203
 -1        16    4    0    1
 -2       234       142        68       171       240       146        70       175       235       143
 -2       170       236       237       144        69       173       241       147       174       242
 -1        17    4    0    1
 -2        55       117       240       204        53       121       246       208       116       238
 -2       239       205        54       119       243       206       120       244       245       209
 -1        18    4    0    1
 -2       117        40       146       240       121        42       150       246       118       145
 -2       241       238       119        41       148       243       122       149       247       244
 -1        19    4    0    1
 -2       204       240       175        85       208       246       179        87       239       242
 -2       176       203       206       243       177        86       245       248       180       207
 -1        20    4    0    1
 -2       240       146        70       175       246       150        72       179       241       147
 -2       174       242       243       148        71       177       247       151       178       248
 -1        21    4    0    1
 -2        53       121       246       208        51       125       252       212       120       244
 -2       245       209        52       123       249       210       124       250       251       213
 -1        22    4    0    1
 -2       121        42       150       246       125        44       154       252       122       149
 -2       247       244       123        43       152       249       126       153       253       250
 -1        23    4    0    1
 -2       208       246       179        87       212       252       183        89       245       248
 -2       180       207       210       249       181        88       251       254       184       211
 -1        24    4    0    1
 -2       246       150        72       179       252       154        74       183       247       151
 -2       178       248       249       152        73       181       253       155       182       254
 -3
    1PSTEP                         1           1           1          
  100CL  101 5.00000E-03         201                     1    1           1
 -4  DISP        4    1
 -5  D1          1    2    1    0
 -5  D2          1    2    2    0
 -5  D3          1    2    3    0
 -5  ALL         1    2    0    0    1ALL
 -1         1 0.00000E+00 0.00000E+00 0.00000E+00
 -1         2 0.00000E+00 0.00000E+00 0.00000E+00
 -1         3 0.00000E+00 0.00000E+00 0.00000E+00
 -1         4 0.00000E+00 0.00000E+00 0.00000E+00
 -1         9 0.00000E+00 0.00000E+00 0.00000E+00
 -1        10 0.00000E+00 0.00000E+00 0.00000E+00
 -1        11 0.00000E+00 0.00000E+00 0.00000E+00
 -1        12 0.00000E+00 0.00000E+00 0.00000E+00
 -1        13 0.00000E+00 0.00000E+00 0.00000E+00
 -1        14 0.00000E+00 0.00000E+00 0.00000E+00
 -1        15 0.00000E+00 0.00000E+00 0.00000E+00
 -1        16 0.00000E+00 0.00000E+00 0.00000E+00
 -1        17 0.00000E+00 0.00000E+00 0.00000E+00
 -1        18 0.00000E+00 0.00000E+00 0.00000E+00
 -1        19 0.00000E+00 0.00000E+00 0.00000E+00
 -1        20 0.00000E+00 0.00000E+00 0.00000E+00
 -1        33 6.38161E-03-1.55619E-02-2.04470E-02
 -1        34 3.13207E-03-4.81796E-02-3.74325E-02
 -1        35 2.57358E-03-9.70664E-02-4.83888E-02
 -1        36 8.09826E-04-1.52818E-01-5.40925E-02
 -1        37-5.18277E-04-2.11159E-01-5.47764E-02
 -1        38-2.11008E-03-2.69424E-01-5.19141E-02
 -1        39-4.26940E-03-3.19552E-01-3.84912E-02
 -1        40-4.35059E-03-3.54364E-01-2.09679E-02
 -1        41-4.39997E-03-3.58017E-01-6.38859E-03
 -1        42-6.01843E-03-3.73820E-01-1.48654E-02
 -1        43 6.05561E-03-3.47571E-01 8.45684E-03
 -1        44-6.35752E-03-3.47131E-01 4.48062E-02
 -1        51 6.34855E-03-3.47130E-01 4.48143E-02
 -1        52-6.06308E-03-3.47567E-01 8.46364E-03
 -1        53 6.00023E-03-3.73824E-01-1.48648E-02
 -1        54 4.38663E-03-3.58016E-01-6.38748E-03
 -1        55 4.33473E-03-3.54364E-01-2.09689E-02
 -1        56 4.25672E-03-3.19552E-01-3.84923E-02
 -1        57 2.09790E-03-2.69425E-01-5.19162E-02
 -1        58 5.09281E-04-2.11159E-01-5.47785E-02
 -1        59-8.16727E-04-1.52818E-01-5.40949E-02
 -1        60-2.57777E-03-9.70664E-02-4.83908E-02
 -1        61-3.13430E-03-4.81798E-02-3.74341E-02
 -1        62-6.38228E-03-1.55622E-02-2.04479E-02
 -1        63-6.26393E-03-1.53875E-02 2.01017E-02
 -1        64-3.11733E-03-4.81221E-02 3.66921E-02
 -1        65-2.34265E-03-9.70194E-02 4.73516E-02
 -1        66-7.94156E-04-1.53466E-01 5.27129E-02
 -1        67 4.94038E-04-2.10184E-01 5.30735E-02
 -1        68 1.44661E-03-2.69473E-01 4.93817E-02
 -1        69 5.86734E-03-3.20622E-01 3.58124E-02
 -1        70 6.61579E-03-3.63499E-01 1.84437E-02
 -1        71-5.86515E-04-3.45798E-01 3.31541E-03
 -1        72-1.05840E-02-3.47528E-01 7.90875E-03
 -1        73 2.04001E-02-3.89120E-01-1.68125E-02
 -1        74 3.21091E-02-4.41882E-01-4.94733E-02
 -1        78 6.26319E-03-1.53872E-02 2.01008E-02
 -1        79 3.11520E-03-4.81221E-02 3.66905E-02
 -1        80 2.33835E-03-9.70193E-02 4.73496E-02
 -1        81 7.87622E-04-1.53466E-01 5.27108E-02
 -1        82-5.03261E-04-2.10184E-01 5.30713E-02
 -1        83-1.45794E-03-2.69473E-01 4.93799E-02
 -1        84-5.88060E-03-3.20621E-01 3.58112E-02
 -1        85-6.62930E-03-3.63501E-01 1.84440E-02
 -1        86 5.71763E-04-3.45798E-01 3.31562E-03
 -1        87 1.05694E-02-3.47530E-01 7.90867E-03
 -1        88-2.04108E-02-3.89119E-01-1.68102E-02
 -1        89-3.21094E-02-4.41885E-01-4.94654E-02
 -1        93 0.00000E+00 0.00000E+00 0.00000E+00
 -1        94 0.00000E+00 0.00000E+00 0.00000E+00
 -1        95 0.00000E+00 0.00000E+00 0.00000E+00
 -1        96 0.00000E+00 0.00000E+00 0.00000E+00
 -1        97 0.00000E+00 0.00000E+00 0.00000E+00
 -1       103-2.67886E-07-1.81895E-02-2.00684E-02
 -1       104-1.56316E-03-5.01235E-02-3.80253E-02
 -1       105-1.01491E-06-5.03764E-02-3.82893E-02
 -1       106 1.56106E-03-5.01234E-02-3.80245E-02
 -1       107-2.13450E-06-9.80736E-02-4.86609E-02
 -1       108-3.34028E-04-1.53036E-01-5.44647E-02
 -1       109-3.21951E-06-1.54102E-01-5.43569E-02
 -1       110 3.27379E-04-1.53035E-01-5.44636E-02
 -1       111-4.66963E-06-2.10277E-01-5.51591E-02
 -1       112 7.46890E-04-2.71851E-01-5.21325E-02
 -1       113-5.39700E-06-2.71176E-01-5.22927E-02
 -1       114-7.58472E-04-2.71851E-01-5.21316E-02
 -1       115-6.91495E-06-3.15705E-01-3.93322E-02
 -1       116 3.29009E-03-3.51963E-01-2.04092E-02
 -1       117-6.34134E-06-3.64221E-01-1.83201E-02
 -1       118-3.30409E-03-3.51962E-01-2.04087E-02
 -1       119-7.96953E-06-3.55416E-01-6.60722E-03
 -1       120-6.90317E-04-3.91143E-01-1.13073E-02
 -1       121-3.98802E-06-3.76536E-01-1.17986E-02
 -1       122 6.75968E-04-3.91143E-01-1.13080E-02
 -1       123-7.65593E-06-3.48301E-01-2.52211E-03
 -1       124 1.47839E-02-2.96442E-01 4.29148E-02
 -1       125 5.91176E-06-3.58996E-01 4.48488E-02
 -1       126-1.47783E-02-2.96436E-01 4.29122E-02
 -1       132 7.18307E-05-1.18647E-02-1.60832E-04
 -1       133 1.61224E-03-4.69543E-02-1.77994E-02
 -1       134 8.83635E-05-4.74254E-02-2.89992E-04
 -1       135-1.53991E-03-4.69642E-02 1.71136E-02
 -1       136-1.81533E-05-9.53111E-02-5.61096E-04
 -1       137 4.78022E-04-1.52624E-01-2.68606E-02
 -1       138 4.86438E-05-1.51844E-01-7.40354E-04
 -1       139-3.69351E-04-1.52793E-01 2.55086E-02
 -1       140 1.66296E-04-2.12574E-01-9.25006E-04
 -1       141-1.05156E-03-2.67984E-01-2.44379E-02
 -1       142 5.50126E-04-2.68639E-01-5.19476E-04
 -1       143 1.12547E-03-2.68603E-01 2.24086E-02
 -1       144-8.96499E-04-3.21938E-01-1.27778E-03
 -1       145-2.03215E-03-3.56219E-01-1.32078E-02
 -1       146-1.30715E-03-3.46521E-01-2.48803E-03
 -1       147 1.80654E-03-3.58634E-01 1.00592E-02
 -1       148 2.70578E-03-3.68124E-01-2.38942E-03
 -1       149-3.29609E-03-3.42145E-01-4.72340E-03
 -1       150 8.54116E-03-3.44893E-01-2.16901E-04
 -1       151 2.83348E-03-3.35388E-01-1.08011E-06
 -1       152-1.27239E-02-3.72081E-01 1.16874E-03
 -1       153 7.14688E-03-3.63532E-01 1.90714E-02
 -1       154-1.20969E-02-2.50177E-01-2.10078E-03
 -1       155-6.65778E-03-3.88803E-01-2.38149E-02
 -1       161-2.80996E-07-1.80676E-02 1.96932E-02
 -1       162-1.53739E-03-5.00580E-02 3.73466E-02
 -1       163-1.08564E-06-5.01293E-02 3.75636E-02
 -1       164 1.53527E-03-5.00579E-02 3.73459E-02
 -1       165-2.09702E-06-9.80796E-02 4.76483E-02
 -1       166-3.98912E-04-1.52769E-01 5.30460E-02
 -1       167-3.37410E-06-1.53694E-01 5.32689E-02
 -1       168 3.92287E-04-1.52769E-01 5.30449E-02
 -1       169-4.55342E-06-2.10364E-01 5.30741E-02
 -1       170 7.49814E-04-2.71840E-01 5.01173E-02
 -1       171-5.77431E-06-2.68036E-01 4.96759E-02
 -1       172-7.61325E-04-2.71841E-01 5.01165E-02
 -1       173-6.61900E-06-3.17776E-01 3.68808E-02
 -1       174 3.12497E-03-3.46119E-01 1.70923E-02
 -1       175-7.22869E-06-3.56150E-01 1.72575E-02
 -1       176-3.13878E-03-3.46120E-01 1.70923E-02
 -1       177-7.28632E-06-3.51111E-01 2.08360E-03
 -1       178-4.44075E-03-4.00870E-01 7.15612E-03
 -1       179-6.70494E-06-3.57886E-01 4.81269E-03
 -1       180 4.42599E-03-4.00873E-01 7.15721E-03
 -1       181-5.21741E-06-3.68372E-01-6.12329E-03
 -1       182 1.12113E-02-2.56043E-01-4.71058E-02
 -1       183-1.58873E-06-4.35732E-01-4.76558E-02
 -1       184-1.12105E-02-2.56037E-01-4.71067E-02
 -1       190-7.26479E-05-1.18648E-02-1.61709E-04
 -1       191 1.53769E-03-4.69642E-02 1.71120E-02
 -1       192-9.06383E-05-4.74254E-02-2.91649E-04
 -1       193-1.61451E-03-4.69544E-02-1.78011E-02
 -1       194 1.38861E-05-9.53112E-02-5.63127E-04
 -1       195 3.62669E-04-1.52793E-01 2.55063E-02
 -1       196-5.53520E-05-1.51844E-01-7.42606E-04
 -1       197-4.84867E-04-1.52624E-01-2.68630E-02
 -1       198-1.75376E-04-2.12574E-01-9.27216E-04
 -1       199-1.13685E-03-2.68603E-01 2.24068E-02
 -1       200-5.62068E-04-2.68639E-01-5.21525E-04
 -1       201 1.03970E-03-2.67984E-01-2.44399E-02
 -1       202 8.83890E-04-3.21938E-01-1.27875E-03
 -1       203-1.82131E-03-3.58634E-01 1.00590E-02
 -1       204 1.29292E-03-3.46520E-01-2.48818E-03
 -1       205 2.01654E-03-3.56219E-01-1.32085E-02
 -1       206-2.72023E-03-3.68124E-01-2.38936E-03
 -1       207-2.84754E-03-3.35388E-01-1.83054E-07
 -1       208-8.56175E-03-3.44890E-01-2.16918E-04
 -1       209 3.27873E-03-3.42145E-01-4.72290E-03
 -1       210 1.27194E-02-3.72084E-01 1.17524E-03
 -1       211 6.64305E-03-3.88798E-01-2.38098E-02
 -1       212 1.20945E-02-2.50171E-01-2.09272E-03
 -1       213-7.15937E-03-3.63533E-01 1.90801E-02
 -1       219-3.27827E-07-1.44423E-02-1.44106E-04
 -1       220-1.06513E-06-4.89365E-02-1.83651E-02
 -1       221-4.28397E-05-4.90886E-02-3.67152E-04
 -1       222-1.08106E-06-4.92288E-02-3.83281E-04
 -1       223 4.06590E-05-4.90886E-02-3.66376E-04
 -1       224-1.10099E-06-4.87981E-02 1.76632E-02
 -1       225-2.13556E-06-9.65277E-02-5.17396E-04
 -1       226-3.24036E-06-1.53378E-01-2.72927E-02
 -1       227-4.01575E-05-1.51967E-01-6.93852E-04
 -1       228-3.27734E-06-1.52151E-01-8.51706E-04
 -1       229 3.35122E-05-1.51967E-01-6.92738E-04
 -1       230-3.31904E-06-1.53214E-01 2.57616E-02
 -1       231-4.59827E-06-2.12436E-01-7.55368E-04
 -1       232-5.48470E-06-2.68781E-01-2.49398E-02
 -1       233-2.29073E-04-2.68359E-01-1.28027E-03
 -1       234-5.54248E-06-2.68073E-01-1.40881E-03
 -1       235 2.17609E-04-2.68359E-01-1.27945E-03
 -1       236-5.66281E-06-2.67059E-01 2.26984E-02
 -1       237-6.71843E-06-3.19176E-01-9.44244E-04
 -1       238-6.40374E-06-3.61112E-01-1.24238E-02
 -1       239 5.69729E-04-3.45304E-01-1.45250E-03
 -1       240-6.68746E-06-3.47677E-01-2.01903E-03
 -1       241-5.83849E-04-3.45305E-01-1.45204E-03
 -1       242-6.90753E-06-3.57379E-01 8.83532E-03
 -1       243-7.53691E-06-3.65564E-01-2.13946E-03
 -1       244-5.27947E-06-3.52012E-01-2.05970E-03
 -1       245-3.39524E-03-3.61111E-01-2.62954E-03
 -1       246-5.98027E-06-3.65193E-01-1.99470E-03
 -1       247 3.38010E-03-3.61111E-01-2.63136E-03
 -1       248-6.30693E-06-3.43590E-01-1.02299E-03
 -1       249-6.21241E-06-3.52203E-01-1.33370E-03
 -1       250 3.68630E-06-4.08410E-01 1.74792E-02
 -1       251 3.04483E-03-2.57261E-01-1.05781E-03
 -1       252-8.19867E-07-3.12194E-01-1.51615E-03
 -1       253-3.05203E-03-2.57267E-01-1.05610E-03
 -1       254-1.64082E-06-4.41617E-01-2.54055E-02
 -3
    1PSTEP                         2           2           1          
  100CL  102 1.00000E-02         201                     1    2           1
 -4  DISP        4    1
 -5  D1          1    2    1    0
 -5  D2          1    2    2    0
 -5  D3          1    2    3    0
 -5  ALL         1    2    0    0    1ALL
 -1         1 0.00000E+00 0.00000E+00 0.00000E+00
 -1         2 0.00000E+00 0.00000E+00 0.00000E+00
 -1         3 0.00000E+00 0.00000E+00 0.00000E+00
 -1         4 0.00000E+00 0.00000E+00 0.00000E+00
 -1         9 0.00000E+00 0.00000E+00 0.00000E+00
 -1        10 0.00000E+00 0.00000E+00 0.00000E+00
 -1        11 0.00000E+00 0.00000E+00 0.00000E+00
 -1        12 0.00000E+00 0.00000E+00 0.00000E+00
 -1        13 0.00000E+00 0.00000E+00 0.00000E+00
 -1        14 0.00000E+00 0.00000E+00 0.00000E+00
 -1        15 0.00000E+00 0.00000E+00 0.00000E+00
 -1        16 0.00000E+00 0.00000E+00 0.00000E+00
 -1        17 0.00000E+00 0.00000E+00 0.00000E+00
 -1        18 0.00000E+00 0.00000E+00 0.00000E+00
 -1        19 0.00000E+00 0.00000E+00 0.00000E+00
 -1        20 0.00000E+00 0.00000E+00 0.00000E+00
 -1        33-3.19810E-03 7.91206E-03 1.02953E-02
 -1        34-1.54865E-03 2.44653E-02 1.87647E-02
 -1        35-1.27558E-03 4.92267E-02 2.42629E-02
 -1        36-4.53464E-04 7.73893E-02 2.69975E-02
 -1        37 4.26150E-04 1.07124E-01 2.71800E-02
 -1        38 1.34440E-03 1.36690E-01 2.50291E-02
 -1        39 2.07446E-03 1.60825E-01 1.85280E-02
 -1        40 1.39717E-03 1.78287E-01 9.25903E-03
 -1        41 3.48171E-03 1.81649E-01 2.10035E-03
 -1        42 4.43591E-03 1.87067E-01 1.12870E-03
 -1        43-3.81535E-03 1.69868E-01-7.81691E-03
 -1        44-1.52103E-02 1.60945E-01-2.33719E-02
 -1        51 1.52084E-02 1.60931E-01-2.33701E-02
 -1        52 3.81306E-03 1.69866E-01-7.81616E-03
 -1        53-4.44147E-03 1.87066E-01 1.12846E-03
 -1        54-3.48610E-03 1.81649E-01 2.10039E-03
 -1        55-1.40199E-03 1.78286E-01 9.25872E-03
 -1        56-2.07825E-03 1.60825E-01 1.85274E-02
 -1        57-1.34797E-03 1.36690E-01 2.50283E-02
 -1        58-4.28668E-04 1.07123E-01 2.71792E-02
 -1        59 4.51523E-04 7.73888E-02 2.69967E-02
 -1        60 1.27449E-03 4.92263E-02 2.42622E-02
 -1        61 1.54810E-03 2.44651E-02 1.87641E-02
 -1        62 3.19796E-03 7.91190E-03 1.02950E-02
 -1        63 3.19680E-03 7.91021E-03-1.02915E-02
 -1        64 1.54735E-03 2.44641E-02-1.87574E-02
 -1        65 1.27292E-03 4.92255E-02-2.42521E-02
 -1        66 4.50322E-04 7.73892E-02-2.69835E-02
 -1        67-4.30873E-04 1.07123E-01-2.71634E-02
 -1        68-1.34778E-03 1.36693E-01-2.50091E-02
 -1        69-2.08026E-03 1.60822E-01-1.85052E-02
 -1        70-1.40966E-03 1.78304E-01-9.23291E-03
 -1        71-3.49152E-03 1.81645E-01-2.07060E-03
 -1        72-4.41243E-03 1.87034E-01-1.09267E-03
 -1        73 3.81721E-03 1.69875E-01 7.85580E-03
 -1        74 1.52442E-02 1.60980E-01 2.34086E-02
 -1        78-3.19708E-03 7.91024E-03-1.02918E-02