    1C
    1UUSER                                                              
    1UDATE              18.july.2018                                    
    1UTIME              00:15:48                                        
    1UHOST                                                              
    1UPGM               CalculiX                                        
    1UVERSION           Version 2.13                             
    1UCOMPILETIME       jue jun 14 00:40:39 CEST 2018                    
    1UDIR                                                               
    1UDBN                                                               
    1UMAT    1EL                                                        
    2C                            81                                     1
 -1         5 0.00000E+00 0.00000E+00 8.00000E+00
 -1         6 1.00000E+00 0.00000E+00 8.00000E+00
 -1         7 1.00000E+00 1.00000E+00 8.00000E+00
 -1         8 0.00000E+00 1.00000E+00 8.00000E+00
 -1        21 2.50000E-01 0.00000E+00 8.00000E+00
 -1        22 5.00000E-01 0.00000E+00 8.00000E+00
 -1        23 7.50000E-01 0.00000E+00 8.00000E+00
 -1        24 1.00000E+00 2.50000E-01 8.00000E+00
 -1        25 1.00000E+00 5.00000E-01 8.00000E+00
 -1        26 1.00000E+00 7.50000E-01 8.00000E+00
 -1        27 7.50000E-01 1.00000E+00 8.00000E+00
 -1        28 5.00000E-01 1.00000E+00 8.00000E+00
 -1        29 2.50000E-01 1.00000E+00 8.00000E+00
 -1        30 0.00000E+00 7.50000E-01 8.00000E+00
 -1        31 0.00000E+00 5.00000E-01 8.00000E+00
 -1        32 0.00000E+00 2.50000E-01 8.00000E+00
 -1        44 1.00000E+00 0.00000E+00 6.00000E+00
 -1        45 1.00000E+00 0.00000E+00 6.50000E+00
 -1        46 1.00000E+00 0.00000E+00 7.00000E+00
 -1        47 1.00000E+00 0.00000E+00 7.50000E+00
 -1        48 0.00000E+00 0.00000E+00 7.50000E+00
 -1        49 0.00000E+00 0.00000E+00 7.00000E+00
 -1        50 0.00000E+00 0.00000E+00 6.50000E+00
 -1        51 0.00000E+00 0.00000E+00 6.00000E+00
 -1        74 1.00000E+00 1.00000E+00 6.00000E+00
 -1        75 1.00000E+00 1.00000E+00 6.50000E+00
 -1        76 1.00000E+00 1.00000E+00 7.00000E+00
 -1        77 1.00000E+00 1.00000E+00 7.50000E+00
 -1        89 0.00000E+00 1.00000E+00 6.00000E+00
 -1        90 0.00000E+00 1.00000E+00 6.50000E+00
 -1        91 0.00000E+00 1.00000E+00 7.00000E+00
 -1        92 0.00000E+00 1.00000E+00 7.50000E+00
 -1        98 5.00000E-01 2.50000E-01 8.00000E+00
 -1        99 2.50000E-01 5.00000E-01 8.00000E+00
 -1       100 5.00000E-01 5.00000E-01 8.00000E+00
 -1       101 7.50000E-01 5.00000E-01 8.00000E+00
 -1       102 5.00000E-01 7.50000E-01 8.00000E+00
 -1       124 2.50000E-01 0.00000E+00 6.00000E+00
 -1       125 5.00000E-01 0.00000E+00 6.00000E+00
 -1       126 7.50000E-01 0.00000E+00 6.00000E+00
 -1       127 5.00000E-01 0.00000E+00 6.50000E+00
 -1       128 2.50000E-01 0.00000E+00 7.00000E+00
 -1       129 5.00000E-01 0.00000E+00 7.00000E+00
 -1       130 7.50000E-01 0.00000E+00 7.00000E+00
 -1       131 5.00000E-01 0.00000E+00 7.50000E+00
 -1       153 1.00000E+00 2.50000E-01 6.00000E+00
 -1       154 1.00000E+00 5.00000E-01 6.00000E+00
 -1       155 1.00000E+00 7.50000E-01 6.00000E+00
 -1       156 1.00000E+00 5.00000E-01 6.50000E+00
 -1       157 1.00000E+00 2.50000E-01 7.00000E+00
 -1       158 1.00000E+00 5.00000E-01 7.00000E+00
 -1       159 1.00000E+00 7.50000E-01 7.00000E+00
 -1       160 1.00000E+00 5.00000E-01 7.50000E+00
 -1       182 7.50000E-01 1.00000E+00 6.00000E+00
 -1       183 5.00000E-01 1.00000E+00 6.00000E+00
 -1       184 2.50000E-01 1.00000E+00 6.00000E+00
 -1       185 5.00000E-01 1.00000E+00 6.50000E+00
 -1       186 7.50000E-01 1.00000E+00 7.00000E+00
 -1       187 5.00000E-01 1.00000E+00 7.00000E+00
 -1       188 2.50000E-01 1.00000E+00 7.00000E+00
 -1       189 5.00000E-01 1.00000E+00 7.50000E+00
 -1       211 0.00000E+00 7.50000E-01 6.00000E+00
 -1       212 0.00000E+00 5.00000E-01 6.00000E+00
 -1       213 0.00000E+00 2.50000E-01 6.00000E+00
 -1       214 0.00000E+00 5.00000E-01 6.50000E+00
 -1       215 0.00000E+00 7.50000E-01 7.00000E+00
 -1       216 0.00000E+00 5.00000E-01 7.00000E+00
 -1       217 0.00000E+00 2.50000E-01 7.00000E+00
 -1       218 0.00000E+00 5.00000E-01 7.50000E+00
 -1       250 5.00000E-01 2.50000E-01 6.00000E+00
 -1       251 2.50000E-01 5.00000E-01 6.00000E+00
 -1       252 5.00000E-01 5.00000E-01 6.00000E+00
 -1       253 7.50000E-01 5.00000E-01 6.00000E+00
 -1       254 5.00000E-01 7.50000E-01 6.00000E+00
 -1       255 5.00000E-01 5.00000E-01 6.50000E+00
 -1       256 5.00000E-01 2.50000E-01 7.00000E+00
 -1       257 2.50000E-01 5.00000E-01 7.00000E+00
 -1       258 5.00000E-01 5.00000E-01 7.00000E+00
 -1       259 7.50000E-01 5.00000E-01 7.00000E+00
 -1       260 5.00000E-01 7.50000E-01 7.00000E+00
 -1       261 5.00000E-01 5.00000E-01 7.50000E+00
 -3
    3C                             8                                     1
 -1        25    4    0    1
 -2        51       125       252       212        49       129       258       216       124       250
 -2       251       213        50       127       255       214       128       256       257       217
 -1        26    4    0    1
 -2       125        44       154       252       129        46       158       258       126       153
 -2       253       250       127        45       156       255       130       157       259       256
 -1        27    4    0    1
 -2       212       252       183        89       216       258       187        91       251       254
 -2       184       211       214       255       185        90       257       260       188       215
 -1        28    4    0    1
 -2       252       154        74       183       258       158        76       187       253       155
 -2       182       254       255       156        75       185       259       159       186       260
 -1        29    4    0    1
 -2        49       129       258       216         5        22       100        31       128       256
 -2       257       217        48       131       261       218        21        98        99        32
 -1        30    4    0    1
 -2       129        46       158       258        22         6        25       100       130       157
 -2       259       256       131        47       160       261        23        24       101        98
 -1        31    4    0    1
 -2       216       258       187        91        31       100        28         8       257       260
 -2       188       215       218       261       189        92        99       102        29        30
 -1        32    4    0    1
 -2       258       158        76       187       100        25         7        28       259       159
 -2       186       260       261       160        77       189       101        26        27       102
 -3
    1PSTEP                         1           1           1          
  100CL  101 5.00000E-03          81                     1    1           1
 -4  DISP        4    1
 -5  D1          1    2    1    0
 -5  D2          1    2    2    0
 -5  D3          1    2    3    0
 -5  ALL         1    2    0    0    1ALL
 -1         5 0.00000E+00 0.00000E+00 0.00000E+00
 -1         6 0.00000E+00 0.00000E+00 0.00000E+00
 -1         7 0.00000E+00 0.00000E+00 0.00000E+00
 -1         8 0.00000E+00 0.00000E+00 0.00000E+00
 -1        21 0.00000E+00 0.00000E+00 0.00000E+00
 -1        22 0.00000E+00 0.00000E+00 0.00000E+00
 -1        23 0.00000E+00 0.00000E+00 0.00000E+00
 -1        24 0.00000E+00 0.00000E+00 0.00000E+00
 -1        25 0.00000E+00 0.00000E+00 0.00000E+00
 -1        26 0.00000E+00 0.00000E+00 0.00000E+00
 -1        27 0.00000E+00 0.00000E+00 0.00000E+00
 -1        28 0.00000E+00 0.00000E+00 0.00000E+00
 -1        29 0.00000E+00 0.00000E+00 0.00000E+00
 -1        30 0.00000E+00 0.00000E+00 0.00000E+00
 -1        31 0.00000E+00 0.00000E+00 0.00000E+00
 -1        32 0.00000E+00 0.00000E+00 0.00000E+00
 -1        44-5.97358E-07-3.46524E-05 4.48488E-06
 -1        45 5.69258E-07-2.56226E-05 7.85424E-06
 -1        46-4.79011E-07-1.79634E-05 9.49433E-06
 -1        47 1.30983E-06-6.75169E-06 5.43321E-06
 -1        48-1.30986E-06-6.75171E-06 5.43326E-06
 -1        49 4.78886E-07-1.79634E-05 9.49444E-06
 -1        50-5.69494E-07-2.56226E-05 7.85444E-06
 -1        51 5.96778E-07-3.46525E-05 4.48522E-06
 -1        74 3.17416E-06-4.41120E-05-4.94773E-06
 -1        75 1.90332E-06-2.97179E-05-7.84968E-06
 -1        76-1.09921E-06-1.59845E-05-9.50227E-06
 -1        77-2.07709E-06-5.27005E-06-5.58319E-06
 -1        89-3.17473E-06-4.41119E-05-4.94737E-06
 -1        90-1.90355E-06-2.97179E-05-7.84948E-06
 -1        91 1.09908E-06-1.59845E-05-9.50217E-06
 -1        92 2.07707E-06-5.27003E-06-5.58315E-06
 -1        98 0.00000E+00 0.00000E+00 0.00000E+00
 -1        99 0.00000E+00 0.00000E+00 0.00000E+00
 -1       100 0.00000E+00 0.00000E+00 0.00000E+00
 -1       101 0.00000E+00 0.00000E+00 0.00000E+00
 -1       102 0.00000E+00 0.00000E+00 0.00000E+00
 -1       124 1.50331E-06-2.96670E-05 4.29674E-06
 -1       125-2.19770E-10-3.59023E-05 4.48708E-06
 -1       126-1.50381E-06-2.96670E-05 4.29663E-06
 -1       127-1.42206E-10-2.56332E-05 9.04015E-06
 -1       128-9.30822E-08-1.95310E-05 9.48366E-06
 -1       129-3.70058E-11-1.81453E-05 9.41717E-06
 -1       130 9.29844E-08-1.95310E-05 9.48360E-06
 -1       131-7.78790E-12-7.36482E-06 5.56433E-06
 -1       153 6.94851E-07-3.63728E-05 1.91131E-06
 -1       154-1.20540E-06-2.50362E-05-2.09506E-07
 -1       155-6.47203E-07-3.88991E-05-2.38096E-06
 -1       156-1.20134E-06-2.79006E-05-6.45382E-07
 -1       157-2.05713E-07-1.50910E-05 3.92389E-06
 -1       158 8.83613E-07-1.56710E-05-2.94310E-07
 -1       159 4.66575E-07-1.47577E-05-4.11197E-06
 -1       160 3.97943E-07-6.56562E-06 4.87733E-08
 -1       182 1.14914E-06-2.56382E-05-4.71382E-06
 -1       183-2.12081E-10-4.35586E-05-4.76660E-06
 -1       184-1.14963E-06-2.56381E-05-4.71370E-06
 -1       185-1.39955E-10-2.83379E-05-8.74462E-06
 -1       186-4.40928E-07-2.16258E-05-9.82949E-06
 -1       187-3.63791E-11-1.83202E-05-9.64068E-06
 -1       188 4.40831E-07-2.16258E-05-9.82943E-06
 -1       189-7.58068E-12-7.20000E-06-5.64611E-06
 -1       211 6.46542E-07-3.88991E-05-2.38063E-06
 -1       212 1.20467E-06-2.50362E-05-2.09118E-07
 -1       213-6.95521E-07-3.63728E-05 1.91165E-06
 -1       214 1.20113E-06-2.79006E-05-6.45169E-07
 -1       215-4.66720E-07-1.47577E-05-4.11185E-06
 -1       216-8.83778E-07-1.56710E-05-2.94204E-07
 -1       217 2.05568E-07-1.50910E-05 3.92401E-06
 -1       218-3.97971E-07-6.56562E-06 4.88058E-08
 -1       250-2.12657E-10-4.08203E-05 1.74578E-06
 -1       251 3.03638E-07-2.57238E-05-1.04003E-07
 -1       252-2.04895E-10-3.12467E-05-1.55530E-07
 -1       253-3.04190E-07-2.57238E-05-1.04059E-07
 -1       254-2.09127E-10-4.41381E-05-2.54278E-06
 -1       255-1.59467E-10-2.59978E-05-3.18577E-07
 -1       256-3.38337E-11-1.60771E-05 3.95779E-06
 -1       257-4.11008E-07-1.74965E-05-1.20238E-07
 -1       258-2.79267E-11-1.79057E-05-1.45769E-07
 -1       259 4.10899E-07-1.74965E-05-1.20322E-07
 -1       260-3.34137E-11-1.62276E-05-4.18426E-06
 -1       261-1.46855E-11-7.17086E-06-2.00078E-08
 -3
    1PSTEP                         2           2           1          
  100CL  102 1.00000E-02          81                     1    2           1
 -4  DISP        4    1
 -5  D1          1    2    1    0
 -5  D2          1    2    2    0
 -5  D3          1    2    3    0
 -5  ALL         1    2    0    0    1ALL
 -1         5 0.00000E+00 0.00000E+00 0.00000E+00
 -1         6 0.00000E+00 0.00000E+00 0.00000E+00
 -1         7 0.00000E+00 0.00000E+00 0.00000E+00
 -1         8 0.00000E+00 0.00000E+00 0.00000E+00
 -1        21 0.00000E+00 0.00000E+00 0.00000E+00
 -1        22 0.00000E+00 0.00000E+00 0.00000E+00
 -1        23 0.00000E+00 0.00000E+00 0.00000E+00
 -1        24 0.00000E+00 0.00000E+00 0.00000E+00
 -1        25 0.00000E+00 0.00000E+00 0.00000E+00
 -1        26 0.00000E+00 0.00000E+00 0.00000E+00
 -1        27 0.00000E+00 0.00000E+00 0.00000E+00
 -1        28 0.00000E+00 0.00000E+00 0.00000E+00
 -1        29 0.00000E+00 0.00000E+00 0.00000E+00
 -1        30 0.00000E+00 0.00000E+00 0.00000E+00
 -1        31 0.00000E+00 0.00000E+00 0.00000E+00
 -1        32 0.00000E+00 0.00000E+00 0.00000E+00
 -1        44-1.58633E-06 1.59935E-05-2.33943E-06
 -1        45-3.92131E-07 1.24355E-05-3.77347E-06
 -1        46 4.39422E-07 9.17427E-06-4.32161E-06
 -1        47-5.26825E-07 3.71498E-06-2.84082E-06
 -1        48 5.26962E-07 3.71510E-06-2.84109E-06
 -1        49-4.39212E-07 9.17407E-06-4.32192E-06
 -1        50 3.93052E-07 1.24359E-05-3.77407E-06
 -1        51 1.58794E-06 1.59925E-05-2.33977E-06
 -1        74 1.45728E-06 1.61428E-05 2.34238E-06
 -1        75 3.14888E-07 1.25175E-05 3.77489E-06
 -1        76-3.96973E-07 9.13310E-06 4.32259E-06
 -1        77 5.49735E-07 3.69035E-06 2.84169E-06
 -1        89-1.45565E-06 1.61418E-05 2.34152E-06
 -1        90-3.14080E-07 1.25177E-05 3.77455E-06
 -1        91 3.97477E-07 9.13277E-06 4.32208E-06
 -1        92-5.49681E-07 3.69035E-06 2.84154E-06
 -1        98 0.00000E+00 0.00000E+00 0.00000E+00
 -1        99 0.00000E+00 0.00000E+00 0.00000E+00
 -1       100 0.00000E+00 0.00000E+00 0.00000E+00
 -1       101 0.00000E+00 0.00000E+00 0.00000E+00
 -1       102 0.00000E+00 0.00000E+00 0.00000E+00
 -1       124 6.44532E-08 1.48288E-05-2.20446E-06
 -1       125 1.11461E-09 1.76415E-05-2.31402E-06
 -1       126-6.25936E-08 1.48292E-05-2.20451E-06
 -1       127 4.01519E-10 1.30199E-05-4.17888E-06
 -1       128-4.09152E-08 9.58319E-06-4.63421E-06
 -1       129 2.08833E-10 8.89171E-06-4.72517E-06
 -1       130 4.12324E-08 9.58330E-06-4.63400E-06
 -1       131 1.49667E-11 3.75421E-06-2.75971E-06
 -1       153 1.27626E-06 1.91649E-05-1.03804E-06
 -1       154-2.01846E-08 1.69560E-05 5.81672E-10
 -1       155-1.23124E-06 1.92283E-05 1.04146E-06
 -1       156 6.21430E-09 1.40606E-05 9.82491E-09
 -1       157-2.54433E-07 7.94104E-06-1.85900E-06
 -1       158-1.04631E-09 8.10489E-06 4.19903E-09
 -1       159 2.43851E-07 7.92468E-06 1.85946E-06
 -1       160-1.52656E-09 3.08256E-06 3.16697E-10
 -1       182 9.06782E-09 1.47749E-05 2.20670E-06
 -1       183 4.02439E-10 1.77103E-05 2.31711E-06
 -1       184-7.87179E-09 1.47744E-05 2.20599E-06
 -1       185 4.32465E-10 1.30237E-05 4.16371E-06
 -1       186-2.34820E-08 9.60113E-06 4.63681E-06
 -1       187 1.32062E-10 8.89320E-06 4.72081E-06
 -1       188 2.38666E-08 9.60097E-06 4.63663E-06
 -1       189 4.41555E-11 3.75568E-06 2.75955E-06
 -1       211 1.23279E-06 1.92283E-05 1.04078E-06
 -1       212 2.19367E-08 1.69568E-05-1.82425E-10
 -1       213-1.27444E-06 1.91648E-05-1.03913E-06
 -1       214-5.42434E-09 1.40603E-05 9.26337E-09
 -1       215-2.43339E-07 7.92467E-06 1.85900E-06
 -1       216 1.49783E-09 8.10523E-06 3.82904E-09
 -1       217 2.54751E-07 7.94112E-06-1.85922E-06
 -1       218 1.65033E-09 3.08253E-06 1.56627E-10
 -1       250 9.06777E-10 1.90580E-05-1.03082E-06
 -1       251-6.22778E-09 1.20903E-05-4.42350E-10
 -1       252 6.75427E-10 1.54179E-05 2.71941E-10
 -1       253 7.76026E-09 1.20898E-05-3.04163E-10
 -1       254 5.54178E-10 1.90530E-05 1.03643E-06
 -1       255 4.53852E-10 1.37604E-05 1.54418E-09
 -1       256 1.90501E-10 7.83116E-06-2.07355E-06
 -1       257 4.72881E-09 9.14103E-06 2.81046E-10
 -1       258 1.60482E-10 8.11388E-06 8.04459E-10
 -1       259-4.35220E-09 9.14088E-06 5.20249E-10
 -1       260 1.46081E-10 7.84007E-06 2.07512E-06
 -1       261 5.05413E-11 3.48227E-06 1.24989E-11
 -3
    1PSTEP                         3           3           1          
  100CL  103 1.50000E-02          81                     1    3           1
 -4  DISP        4    1
 -5  D1          1    2    1    0
 -5  D2          1    2    2    0
 -5  D3          1    2    3    0
 -5  ALL         1    2    0    0    1ALL
 -1         5 0.00000E+00 0.00000E+00 0.00000E+00
 -1         6 0.00000E+00 0.00000E+00 0.00000E+00
 -1         7 0.00000E+00 0.00000E+00 0.00000E+00
 -1         8 0.00000E+00 0.00000E+00 0.00000E+00
 -1        21 0.00000E+00 0.00000E+00 0.00000E+00
 -1        22 0.00000E+00 0.00000E+00 0.00000E+00
 -1        23 0.00000E+00 0.00000E+00 0.00000E+00
 -1        24 0.00000E+00 0.00000E+00 0.00000E+00
 -1        25 0.00000E+00 0.00000E+00 0.00000E+00
 -1        26 0.00000E+00 0.00000E+00 0.00000E+00
 -1        27 0.00000E+00 0.00000E+00 0.00000E+00
 -1        28 0.00000E+00 0.00000E+00 0.00000E+00
 -1        29 0.00000E+00 0.00000E+00 0.00000E+00
 -1        30 0.00000E+00 0.00000E+00 0.00000E+00
 -1        31 0.00000E+00 0.00000E+00 0.00000E+00
 -1        32 0.00000E+00 0.00000E+00 0.00000E+00
 -1        44 1.28552E-06-1.26741E-05 1.85570E-06
 -1        45 3.10995E-07-9.86385E-06 2.99160E-06
 -1        46-3.48010E-07-7.26319E-06 3.41989E-06
 -1        47 4.16854E-07-2.94505E-06 2.25324E-06
 -1        48-4.16807E-07-2.94490E-06 2.25311E-06
 -1        49 3.47997E-07-7.26334E-06 3.41989E-06
 -1        50-3.10418E-07-9.86355E-06 2.99130E-06
 -1        51-1.28379E-06-1.26766E-05 1.85588E-06
 -1        74-1.21350E-06-1.27365E-05-1.85626E-06
 -1        75-2.71214E-07-9.90107E-06-2.99255E-06
 -1        76 3.29145E-07-7.24541E-06-3.42009E-06
 -1        77-4.28147E-07-2.93459E-06-2.25299E-06
 -1        89 1.21497E-06-1.27353E-05-1.85611E-06
 -1        90 2.72092E-07-9.90078E-06-2.99266E-06
 -1        91-3.28901E-07-7.24540E-06-3.42025E-06
 -1        92 4.28207E-07-2.93462E-06-2.25308E-06
 -1        98 0.00000E+00 0.00000E+00 0.00000E+00
 -1        99 0.00000E+00 0.00000E+00 0.00000E+00
 -1       100 0.00000E+00 0.00000E+00 0.00000E+00
 -1       101 0.00000E+00 0.00000E+00 0.00000E+00
 -1       102 0.00000E+00 0.00000E+00 0.00000E+00
 -1       124-7.16577E-08-1.17517E-05 1.75004E-06
 -1       125 9.88661E-10-1.39903E-05 1.83573E-06
 -1       126 7.32968E-08-1.17508E-05 1.74923E-06
 -1       127 2.73779E-10-1.03223E-05 3.30852E-06
 -1       128 3.50306E-08-7.59255E-06 3.67270E-06
 -1       129 1.15043E-10-7.04574E-06 3.74750E-06
 -1       130-3.48772E-08-7.59238E-06 3.67286E-06
 -1       131-1.48613E-11-2.97422E-06 2.18658E-06
 -1       153-1.03693E-06-1.52040E-05 8.25270E-07
 -1       154 1.59840E-08-1.35187E-05 1.52918E-10
 -1       155 1.01050E-06-1.52436E-05-8.25461E-07
 -1       156 9.06761E-10-1.11474E-05-4.12069E-09
 -1       157 2.09289E-07-6.29764E-06 1.47254E-06
 -1       158-2.39634E-09-6.42667E-06-1.20133E-09
 -1       159-2.03150E-07-6.28731E-06-1.47176E-06
 -1       160-2.14894E-10-2.43750E-06-7.99175E-11
 -1       182-2.93936E-08-1.17313E-05-1.74934E-06
 -1       183 7.17956E-10-1.40092E-05-1.83797E-06
 -1       184 3.06626E-08-1.17311E-05-1.74939E-06
 -1       185 3.08268E-10-1.03160E-05-3.30087E-06
 -1       186 2.45146E-08-7.59715E-06-3.67344E-06
 -1       187 2.04069E-10-7.04638E-06-3.74417E-06
 -1       188-2.41429E-08-7.59707E-06-3.67347E-06
 -1       189 3.27873E-11-2.97592E-06-2.18629E-06
 -1       211-1.01015E-06-1.52426E-05-8.25239E-07
 -1       212-1.59731E-08-1.35183E-05-3.92315E-12
 -1       213 1.03760E-06-1.52052E-05 8.24884E-07
 -1       214-2.76114E-10-1.11476E-05-4.41226E-09
 -1       215 2.03450E-07-6.28722E-06-1.47206E-06
 -1       216 2.58338E-09-6.42637E-06-1.50306E-09
 -1       217-2.09148E-07-6.29751E-06 1.47247E-06
 -1       218 3.20230E-10-2.43749E-06-2.42779E-10
 -1       250 5.04413E-10-1.51067E-05 8.17990E-07
 -1       251 8.25508E-09-9.57517E-06 1.39317E-10
 -1       252-3.90579E-11-1.22099E-05-7.38294E-10
 -1       253-8.14164E-09-9.57543E-06 7.82180E-10
 -1       254 3.92034E-10-1.50869E-05-8.20608E-07
 -1       255 1.44032E-10-1.09176E-05 2.23862E-10
 -1       256 1.36225E-10-6.19932E-06 1.64517E-06
 -1       257-2.18813E-09-7.24989E-06 2.82717E-11
 -1       258 1.64910E-10-6.41863E-06-3.06972E-12
 -1       259 2.40651E-09-7.25003E-06 5.48586E-11
 -1       260 1.73463E-10-6.20591E-06-1.64539E-06
 -1       261 5.59001E-11-2.75870E-06 9.22687E-11
 -3
    1PSTEP                         4           4           1          
  100CL  104 2.00000E-02          81                     1    4           1
 -4  DISP        4    1
 -5  D1          1    2    1    0
 -5  D2          1    2    2    0
 -5  D3          1    2    3    0
 -5  ALL         1    2    0    0    1ALL
 -1         5 0.00000E+00 0.00000E+00 0.00000E+00
 -1         6 0.00000E+00 0.00000E+00 0.00000E+00
 -1         7 0.00000E+00 0.00000E+00 0.00000E+00
 -1         8 0.00000E+00 0.00000E+00 0.00000E+00
 -1        21 0.00000E+00 0.00000E+00 0.00000E+00
 -1        22 0.00000E+00 0.00000E+00 0.00000E+00
 -1        23 0.00000E+00 0.00000E+00 0.00000E+00
 -1        24 0.00000E+00 0.00000E+00 0.00000E+00
 -1        25 0.00000E+00 0.00000E+00 0.00000E+00
 -1        26 0.00000E+00 0.00000E+00 0.00000E+00
 -1        27 0.00000E+00 0.00000E+00 0.00000E+00
 -1        28 0.00000E+00 0.00000E+00 0.00000E+00
 -1        29 0.00000E+00 0.00000E+00 0.00000E+00
 -1        30 0.00000E+00 0.00000E+00 0.00000E+00
 -1        31 0.00000E+00 0.00000E+00 0.00000E+00
 -1        32 0.00000E+00 0.00000E+00 0.00000E+00
 -1        44-1.00972E-06 9.83152E-06-1.44293E-06
 -1        45-2.49511E-07 7.65248E-06-2.32392E-06
 -1        46 2.74854E-07 5.64775E-06-2.65799E-06
 -1        47-3.21832E-07 2.28946E-06-1.75068E-06
 -1        48 3.21798E-07 2.28959E-06-1.75059E-06
 -1        49-2.74676E-07 5.64745E-06-2.65771E-06
 -1        50 2.49419E-07 7.65283E-06-2.32444E-06
 -1        51 1.01170E-06 9.82969E-06-1.44336E-06
 -1        74 9.31576E-07 9.89970E-06 1.44405E-06
 -1        75 2.05558E-07 7.69322E-06 2.32633E-06
 -1        76-2.52415E-07 5.62763E-06 2.65802E-06
 -1        77 3.34490E-07 2.27808E-06 1.75026E-06
 -1        89-9.31485E-07 9.89985E-06 1.44366E-06
 -1        90-2.05054E-07 7.69356E-06 2.32591E-06
 -1        91 2.52340E-07 5.62762E-06 2.65827E-06
 -1        92-3.34452E-07 2.27805E-06 1.75037E-06
 -1        98 0.00000E+00 0.00000E+00 0.00000E+00
 -1        99 0.00000E+00 0.00000E+00 0.00000E+00
 -1       100 0.00000E+00 0.00000E+00 0.00000E+00
 -1       101 0.00000E+00 0.00000E+00 0.00000E+00
 -1       102 0.00000E+00 0.00000E+00 0.00000E+00
 -1       124 5.72064E-08 9.13549E-06-1.36113E-06
 -1       125 3.33499E-10 1.08663E-05-1.42816E-06
 -1       126-5.60538E-08 9.13643E-06-1.36203E-06
 -1       127 3.18878E-10 8.02036E-06-2.57435E-06
 -1       128-2.77732E-08 5.89620E-06-2.85395E-06
 -1       129-1.59416E-10 5.47203E-06-2.91254E-06
 -1       130 2.77294E-08 5.89636E-06-2.85385E-06
 -1       131-1.00714E-11 2.30960E-06-1.69865E-06
 -1       153 8.11629E-07 1.18116E-05-6.41514E-07
 -1       154-1.85801E-08 1.05036E-05 9.02492E-10
 -1       155-7.81050E-07 1.18528E-05 6.41484E-07
 -1       156-5.22539E-10 8.66231E-06 4.20063E-09
 -1       157-1.63337E-07 4.89155E-06-1.14423E-06
 -1       158 2.68869E-09 4.98926E-06 1.60033E-09
 -1       159 1.56954E-07 4.88037E-06 1.14396E-06
 -1       160 3.84802E-10 1.89229E-06 2.95639E-10
 -1       182 1.30769E-08 9.11456E-06 1.36125E-06
 -1       183 5.03733E-10 1.08866E-05 1.42968E-06
 -1       184-1.25688E-08 9.11439E-06 1.36129E-06
 -1       185 1.14451E-10 8.01380E-06 2.56561E-06
 -1       186-1.61680E-08 5.90109E-06 2.85462E-06
 -1       187 1.35512E-10 5.47206E-06 2.90900E-06
 -1       188 1.62713E-08 5.90115E-06 2.85470E-06
 -1       189-3.64948E-12 2.31124E-06 1.69826E-06
 -1       211 7.81304E-07 1.18533E-05 6.41847E-07
 -1       212 1.95976E-08 1.05042E-05-8.65060E-10
 -1       213-8.10066E-07 1.18109E-05-6.42043E-07
 -1       214 5.77601E-10 8.66206E-06 3.73387E-09
 -1       215-1.56801E-07 4.88049E-06 1.14370E-06
 -1       216-2.42947E-09 4.98961E-06 1.55111E-09
 -1       217 1.63551E-07 4.89161E-06-1.14429E-06
 -1       218-3.98948E-10 1.89229E-06 3.35355E-10
 -1       250-4.50997E-12 1.17383E-05-6.37182E-07
 -1       251-5.98363E-09 7.43783E-06-5.96639E-10
 -1       252-2.61443E-10 9.49537E-06-3.31119E-10
 -1       253 6.26809E-09 7.43743E-06 3.76318E-10
 -1       254 1.55583E-10 1.17190E-05 6.38800E-07
 -1       255 1.19546E-10 8.48243E-06-3.28394E-10
 -1       256-9.41537E-11 4.81470E-06-1.27858E-06
 -1       257 2.13297E-09 5.63156E-06-2.35103E-10
 -1       258-4.30571E-11 4.98449E-06 3.07207E-11
 -1       259-2.06499E-09 5.63141E-06-2.28170E-10
 -1       260 3.41981E-11 4.82102E-06 1.27881E-06
 -1       261 2.91288E-11 2.14139E-06 8.65490E-12
 -3
    1PSTEP                         5           5           1          
  100CL  105 2.50000E-02          81                     1    5           1
 -4  DISP        4    1
 -5  D1          1    2    1    0
 -5  D2          1    2    2    0
 -5  D3          1    2    3    0
 -5  ALL         1    2    0    0    1ALL
 -1         5 0.00000E+00 0.00000E+00 0.00000E+00
 -1         6 0.00000E+00 0.00000E+00 0.00000E+00
 -1         7 0.00000E+00 0.00000E+00 0.00000E+00
 -1         8 0.00000E+00 0.00000E+00 0.00000E+00
 -1        21 0.00000E+00 0.00000E+00 0.00000E+00
 -1        22 0.00000E+00 0.00000E+00 0.00000E+00
 -1        23 0.00000E+00 0.00000E+00 0.00000E+00
 -1        24 0.00000E+00 0.00000E+00 0.00000E+00
 -1        25 0.00000E+00 0.00000E+00 0.00000E+00
 -1        26 0.00000E+00 0.00000E+00 0.00000E+00
 -1        27 0.00000E+00 0.00000E+00 0.00000E+00
 -1        28 0.00000E+00 0.00000E+00 0.00000E+00
 -1        29 0.00000E+00 0.00000E+00 0.00000E+00
 -1        30 0.00000E+00 0.00000E+00 0.00000E+00
 -1        31 0.00000E+00 0.00000E+00 0.00000E+00
 -1        32 0.00000E+00 0.00000E+00 0.00000E+00
 -1        44 7.51241E-07-7.42782E-06 1.08797E-06
 -1        45 1.81349E-07-5.78057E-06 1.75215E-06
 -1        46-2.03832E-07-4.25687E-06 2.00454E-06
 -1        47 2.44765E-07-1.72546E-06 1.32066E-06
 -1        48-2.44763E-07-1.72537E-06 1.32038E-06
 -1        49 2.03630E-07-4.25661E-06 2.00421E-06
 -1        50-1.80175E-07-5.78106E-06 1.75237E-06
 -1        51-7.49358E-07-7.42964E-06 1.08775E-06
 -1        74-7.17586E-07-7.45300E-06-1.08804E-06
 -1        75-1.63009E-07-5.79597E-06-1.75310E-06
 -1        76 1.94995E-07-4.24947E-06-2.00445E-06
 -1        77-2.49753E-07-1.72124E-06-1.32023E-06
 -1        89 7.19298E-07-7.45110E-06-1.08816E-06
 -1        90 1.64239E-07-5.79565E-06-1.75300E-06
 -1        91-1.95285E-07-4.24961E-06-2.00474E-06
 -1        92 2.49760E-07-1.72137E-06-1.32056E-06
 -1        98 0.00000E+00 0.00000E+00 0.00000E+00
 -1        99 0.00000E+00 0.00000E+00 0.00000E+00
 -1       100 0.00000E+00 0.00000E+00 0.00000E+00
 -1       101 0.00000E+00 0.00000E+00 0.00000E+00
 -1       102 0.00000E+00 0.00000E+00 0.00000E+00
 -1       124-3.49809E-08-6.88541E-06 1.02559E-06
 -1       125 1.30864E-09-8.20222E-06 1.07615E-06
 -1       126 3.68507E-08-6.88533E-06 1.02599E-06
 -1       127 1.66830E-10-6.04973E-06 1.93948E-06
 -1       128 1.92376E-08-4.44973E-06 2.15236E-06
 -1       129 2.98315E-10-4.12794E-06 2.19589E-06
 -1       130-1.89432E-08-4.44969E-06 2.15244E-06
 -1       131-4.59111E-11-1.74288E-06 1.28136E-06
 -1       153-6.06366E-07-8.91264E-06 4.83844E-07
 -1       154 9.21189E-09-7.91805E-06-1.29183E-10
 -1       155 5.94666E-07-8.92897E-06-4.83200E-07
 -1       156 9.73944E-10-6.53358E-06-1.34553E-09
 -1       157 1.22266E-07-3.68913E-06 8.63009E-07
 -1       158-1.21818E-09-3.76500E-06-4.00397E-10
 -1       159-1.19186E-07-3.68477E-06-8.62641E-07
 -1       160-3.32894E-10-1.42848E-06-1.27686E-10
 -1       182-1.69297E-08-6.87828E-06-1.02512E-06
 -1       183 1.49371E-09-8.20659E-06-1.07675E-06
 -1       184 1.88767E-08-6.87820E-06-1.02562E-06
 -1       185 9.67352E-11-6.04574E-06-1.93609E-06
 -1       186 1.46975E-08-4.45124E-06-2.15271E-06
 -1       187 3.37749E-10-4.12897E-06-2.19445E-06
 -1       188-1.44025E-08-4.45113E-06-2.15274E-06
 -1       189-5.88074E-11-1.74395E-06-1.28125E-06
 -1       211-5.93886E-07-8.92765E-06-4.83753E-07
 -1       212-8.28107E-09-7.91845E-06 6.25343E-10
 -1       213 6.07146E-07-8.91431E-06 4.83202E-07
 -1       214-8.71268E-10-6.53354E-06-1.68127E-09
 -1       215 1.19418E-07-3.68500E-06-8.62762E-07
 -1       216 1.74897E-09-3.76509E-06-7.41501E-10
 -1       217-1.21972E-07-3.68893E-06 8.62877E-07
 -1       218 3.77259E-10-1.42847E-06-1.45702E-10
 -1       250 3.72565E-10-8.85101E-06 4.79946E-07
 -1       251 2.00343E-09-5.61102E-06 5.71688E-10
 -1       252-8.04115E-10-7.15905E-06 2.16462E-10
 -1       253-2.13103E-09-5.61079E-06-2.64340E-10
 -1       254 4.85581E-10-8.84186E-06-4.80763E-07
 -1       255 3.20111E-10-6.39709E-06 2.25187E-10
 -1       256 7.16187E-11-3.63405E-06 9.64222E-07
 -1       257-6.15078E-10-4.24856E-06-6.68003E-11
 -1       258-1.04923E-10-3.76215E-06-4.60088E-11
 -1       259 6.99844E-10-4.24852E-06 2.17211E-10
 -1       260 8.90077E-11-3.63699E-06-9.64272E-07
 -1       261 1.09088E-10-1.61646E-06 1.47126E-11
 -3
    1PSTEP                         6           6           1          
  100CL  106 3.00000E-02          81                     1    6           1
 -4  DISP        4    1
 -5  D1          1    2    1    0
 -5  D2          1    2    2    0
 -5  D3          1    2    3    0
 -5  ALL         1    2    0    0    1ALL
 -1         5 0.00000E+00 0.00000E+00 0.00000E+00
 -1         6 0.00000E+00 0.00000E+00 0.00000E+00
 -1         7 0.00000E+00 0.00000E+00 0.00000E+00
 -1         8 0.00000E+00 0.00000E+00 0.00000E+00
 -1        21 0.00000E+00 0.00000E+00 0.00000E+00
 -1        22 0.00000E+00 0.00000E+00 0.00000E+00
 -1        23 0.00000E+00 0.00000E+00 0.00000E+00
 -1        24 0.00000E+00 0.00000E+00 0.00000E+00
 -1        25 0.00000E+00 0.00000E+00 0.00000E+00
 -1        26 0.00000E+00 0.00000E+00 0.00000E+00
 -1        27 0.00000E+00 0.00000E+00 0.00000E+00
 -1        28 0.00000E+00 0.00000E+00 0.00000E+00
 -1        29 0.00000E+00 0.00000E+00 0.00000E+00
 -1        30 0.00000E+00 0.00000E+00 0.00000E+00
 -1        31 0.00000E+00 0.00000E+00 0.00000E+00
 -1        32 0.00000E+00 0.00000E+00 0.00000E+00
 -1        44-5.59278E-07 5.36845E-06-7.89145E-07
 -1        45-1.39488E-07 4.18060E-06-1.27114E-06
 -1        46 1.52440E-07 3.09487E-06-1.45392E-06
 -1        47-1.74933E-07 1.25477E-06-9.58030E-07