    1C
    1UUSER                                                              
    1UDATE              18.july.2018                                    
    1UTIME              00:13:09                                        
    1UHOST                                                              
    1UPGM               CalculiX                                        
    1UVERSION           Version 2.13                             
    1UCOMPILETIME       jue jun 14 00:40:39 CEST 2018                    
    1UDIR                                                               
    1UDBN                                                               
    1UMAT    1EL                                                        
    2C                            81                                     1
 -1         5 0.00000E+00 0.00000E+00 8.00000E+00
 -1         6 1.00000E+00 0.00000E+00 8.00000E+00
 -1         7 1.00000E+00 1.00000E+00 8.00000E+00
 -1         8 0.00000E+00 1.00000E+00 8.00000E+00
 -1        21 2.50000E-01 0.00000E+00 8.00000E+00
 -1        22 5.00000E-01 0.00000E+00 8.00000E+00
 -1        23 7.50000E-01 0.00000E+00 8.00000E+00
 -1        24 1.00000E+00 2.50000E-01 8.00000E+00
 -1        25 1.00000E+00 5.00000E-01 8.00000E+00
 -1        26 1.00000E+00 7.50000E-01 8.00000E+00
 -1        27 7.50000E-01 1.00000E+00 8.00000E+00
 -1        28 5.00000E-01 1.00000E+00 8.00000E+00
 -1        29 2.50000E-01 1.00000E+00 8.00000E+00
 -1        30 0.00000E+00 7.50000E-01 8.00000E+00
 -1        31 0.00000E+00 5.00000E-01 8.00000E+00
 -1        32 0.00000E+00 2.50000E-01 8.00000E+00
 -1        44 1.00000E+00 0.00000E+00 6.00000E+00
 -1        45 1.00000E+00 0.00000E+00 6.50000E+00
 -1        46 1.00000E+00 0.00000E+00 7.00000E+00
 -1        47 1.00000E+00 0.00000E+00 7.50000E+00
 -1        48 0.00000E+00 0.00000E+00 7.50000E+00
 -1        49 0.00000E+00 0.00000E+00 7.00000E+00
 -1        50 0.00000E+00 0.00000E+00 6.50000E+00
 -1        51 0.00000E+00 0.00000E+00 6.00000E+00
 -1        74 1.00000E+00 1.00000E+00 6.00000E+00
 -1        75 1.00000E+00 1.00000E+00 6.50000E+00
 -1        76 1.00000E+00 1.00000E+00 7.00000E+00
 -1        77 1.00000E+00 1.00000E+00 7.50000E+00
 -1        89 0.00000E+00 1.00000E+00 6.00000E+00
 -1        90 0.00000E+00 1.00000E+00 6.50000E+00
 -1        91 0.00000E+00 1.00000E+00 7.00000E+00
 -1        92 0.00000E+00 1.00000E+00 7.50000E+00
 -1        98 5.00000E-01 2.50000E-01 8.00000E+00
 -1        99 2.50000E-01 5.00000E-01 8.00000E+00
 -1       100 5.00000E-01 5.00000E-01 8.00000E+00
 -1       101 7.50000E-01 5.00000E-01 8.00000E+00
 -1       102 5.00000E-01 7.50000E-01 8.00000E+00
 -1       124 2.50000E-01 0.00000E+00 6.00000E+00
 -1       125 5.00000E-01 0.00000E+00 6.00000E+00
 -1       126 7.50000E-01 0.00000E+00 6.00000E+00
 -1       127 5.00000E-01 0.00000E+00 6.50000E+00
 -1       128 2.50000E-01 0.00000E+00 7.00000E+00
 -1       129 5.00000E-01 0.00000E+00 7.00000E+00
 -1       130 7.50000E-01 0.00000E+00 7.00000E+00
 -1       131 5.00000E-01 0.00000E+00 7.50000E+00
 -1       153 1.00000E+00 2.50000E-01 6.00000E+00
 -1       154 1.00000E+00 5.00000E-01 6.00000E+00
 -1       155 1.00000E+00 7.50000E-01 6.00000E+00
 -1       156 1.00000E+00 5.00000E-01 6.50000E+00
 -1       157 1.00000E+00 2.50000E-01 7.00000E+00
 -1       158 1.00000E+00 5.00000E-01 7.00000E+00
 -1       159 1.00000E+00 7.50000E-01 7.00000E+00
 -1       160 1.00000E+00 5.00000E-01 7.50000E+00
 -1       182 7.50000E-01 1.00000E+00 6.00000E+00
 -1       183 5.00000E-01 1.00000E+00 6.00000E+00
 -1       184 2.50000E-01 1.00000E+00 6.00000E+00
 -1       185 5.00000E-01 1.00000E+00 6.50000E+00
 -1       186 7.50000E-01 1.00000E+00 7.00000E+00
 -1       187 5.00000E-01 1.00000E+00 7.00000E+00
 -1       188 2.50000E-01 1.00000E+00 7.00000E+00
 -1       189 5.00000E-01 1.00000E+00 7.50000E+00
 -1       211 0.00000E+00 7.50000E-01 6.00000E+00
 -1       212 0.00000E+00 5.00000E-01 6.00000E+00
 -1       213 0.00000E+00 2.50000E-01 6.00000E+00
 -1       214 0.00000E+00 5.00000E-01 6.50000E+00
 -1       215 0.00000E+00 7.50000E-01 7.00000E+00
 -1       216 0.00000E+00 5.00000E-01 7.00000E+00
 -1       217 0.00000E+00 2.50000E-01 7.00000E+00
 -1       218 0.00000E+00 5.00000E-01 7.50000E+00
 -1       250 5.00000E-01 2.50000E-01 6.00000E+00
 -1       251 2.50000E-01 5.00000E-01 6.00000E+00
 -1       252 5.00000E-01 5.00000E-01 6.00000E+00
 -1       253 7.50000E-01 5.00000E-01 6.00000E+00
 -1       254 5.00000E-01 7.50000E-01 6.00000E+00
 -1       255 5.00000E-01 5.00000E-01 6.50000E+00
 -1       256 5.00000E-01 2.50000E-01 7.00000E+00
 -1       257 2.50000E-01 5.00000E-01 7.00000E+00
 -1       258 5.00000E-01 5.00000E-01 7.00000E+00
 -1       259 7.50000E-01 5.00000E-01 7.00000E+00
 -1       260 5.00000E-01 7.50000E-01 7.00000E+00
 -1       261 5.00000E-01 5.00000E-01 7.50000E+00
 -3
    3C                             8                                     1
 -1        25    4    0    1
 -2        51       125       252       212        49       129       258       216       124       250
 -2       251       213        50       127       255       214       128       256       257       217
 -1        26    4    0    1
 -2       125        44       154       252       129        46       158       258       126       153
 -2       253       250       127        45       156       255       130       157       259       256
 -1        27    4    0    1
 -2       212       252       183        89       216       258       187        91       251       254
 -2       184       211       214       255       185        90       257       260       188       215
 -1        28    4    0    1
 -2       252       154        74       183       258       158        76       187       253       155
 -2       182       254       255       156        75       185       259       159       186       260
 -1        29    4    0    1
 -2        49       129       258       216         5        22       100        31       128       256
 -2       257       217        48       131       261       218        21        98        99        32
 -1        30    4    0    1
 -2       129        46       158       258        22         6        25       100       130       157
 -2       259       256       131        47       160       261        23        24       101        98
 -1        31    4    0    1
 -2       216       258       187        91        31       100        28         8       257       260
 -2       188       215       218       261       189        92        99       102        29        30
 -1        32    4    0    1
 -2       258       158        76       187       100        25         7        28       259       159
 -2       186       260       261       160        77       189       101        26        27       102
 -3
    1PSTEP                         1           1           1          
  100CL  101 5.00000E-03          81                     1    1           1
 -4  DISP        4    1
 -5  D1          1    2    1    0
 -5  D2          1    2    2    0
 -5  D3          1    2    3    0
 -5  ALL         1    2    0    0    1ALL
 -1         5 0.00000E+00 0.00000E+00 0.00000E+00
 -1         6 0.00000E+00 0.00000E+00 0.00000E+00
 -1         7 0.00000E+00 0.00000E+00 0.00000E+00
 -1         8 0.00000E+00 0.00000E+00 0.00000E+00
 -1        21 0.00000E+00 0.00000E+00 0.00000E+00
 -1        22 0.00000E+00 0.00000E+00 0.00000E+00
 -1        23 0.00000E+00 0.00000E+00 0.00000E+00
 -1        24 0.00000E+00 0.00000E+00 0.00000E+00
 -1        25 0.00000E+00 0.00000E+00 0.00000E+00
 -1        26 0.00000E+00 0.00000E+00 0.00000E+00
 -1        27 0.00000E+00 0.00000E+00 0.00000E+00
 -1        28 0.00000E+00 0.00000E+00 0.00000E+00
 -1        29 0.00000E+00 0.00000E+00 0.00000E+00
 -1        30 0.00000E+00 0.00000E+00 0.00000E+00
 -1        31 0.00000E+00 0.00000E+00 0.00000E+00
 -1        32 0.00000E+00 0.00000E+00 0.00000E+00
 -1        44-6.24891E-06-3.46808E-04 4.48428E-05
 -1        45 5.65226E-06-2.56349E-04 7.85856E-05
 -1        46-4.71425E-06-1.79399E-04 9.49268E-05
 -1        47 1.31252E-05-6.74371E-05 5.42871E-05
 -1        48-1.31233E-05-6.74356E-05 5.42834E-05
 -1        49 4.72429E-06-1.79397E-04 9.49184E-05
 -1        50-5.63397E-06-2.56348E-04 7.85702E-05
 -1        51 6.29381E-06-3.46800E-04 4.48155E-05
 -1        74 3.25089E-05-4.42351E-04-4.94101E-05
 -1        75 1.94530E-05-2.97767E-04-7.84582E-05
 -1        76-1.12471E-05-1.59351E-04-9.49720E-05
 -1        77-2.08864E-05-5.24745E-05-5.57877E-05
 -1        89-3.24639E-05-4.42359E-04-4.94374E-05
 -1        90-1.94348E-05-2.97768E-04-7.84737E-05
 -1        91 1.12571E-05-1.59353E-04-9.49804E-05
 -1        92 2.08883E-05-5.24759E-05-5.57914E-05
 -1        98 0.00000E+00 0.00000E+00 0.00000E+00
 -1        99 0.00000E+00 0.00000E+00 0.00000E+00
 -1       100 0.00000E+00 0.00000E+00 0.00000E+00
 -1       101 0.00000E+00 0.00000E+00 0.00000E+00
 -1       102 0.00000E+00 0.00000E+00 0.00000E+00
 -1       124 1.47885E-05-2.96523E-04 4.29202E-05
 -1       125 1.67481E-08-3.58813E-04 4.48509E-05
 -1       126-1.47502E-05-2.96526E-04 4.29293E-05
 -1       127 1.09640E-08-2.56118E-04 9.03400E-05
 -1       128-8.63036E-07-1.95273E-04 9.47985E-05
 -1       129 3.02367E-09-1.81519E-04 9.41328E-05
 -1       130 8.70969E-07-1.95274E-04 9.48037E-05
 -1       131 6.57494E-10-7.36499E-05 5.56445E-05
 -1       153 7.18871E-06-3.63176E-04 1.91000E-05
 -1       154-1.20742E-05-2.49916E-04-2.05468E-06
 -1       155-6.71483E-06-3.88773E-04-2.37594E-05
 -1       156-1.21239E-05-2.78889E-04-6.48852E-06
 -1       157-2.07595E-06-1.50869E-04 3.92530E-05
 -1       158 8.91194E-06-1.56637E-04-2.95856E-06
 -1       159 4.71530E-06-1.47448E-04-4.11095E-05
 -1       160 4.01154E-06-6.56587E-05 4.89953E-07
 -1       182 1.13955E-05-2.55783E-04-4.70694E-05
 -1       183 1.67887E-08-4.36009E-04-4.76293E-05
 -1       184-1.13571E-05-2.55786E-04-4.70785E-05
 -1       185 1.09389E-08-2.83336E-04-8.72998E-05
 -1       186-4.41560E-06-2.16312E-04-9.82545E-05
 -1       187 3.02229E-09-1.83113E-04-9.63334E-05
 -1       188 4.42352E-06-2.16313E-04-9.82597E-05
 -1       189 6.54582E-10-7.19502E-05-5.64481E-05
 -1       211 6.76449E-06-3.88776E-04-2.37843E-05
 -1       212 1.21265E-05-2.49916E-04-2.08165E-06
 -1       213-7.13912E-06-3.63173E-04 1.90753E-05
 -1       214 1.21415E-05-2.78889E-04-6.50433E-06
 -1       215-4.70423E-06-1.47449E-04-4.11185E-05
 -1       216-8.89991E-06-1.56637E-04-2.96698E-06
 -1       217 2.08704E-06-1.50868E-04 3.92441E-05
 -1       218-4.00911E-06-6.56587E-05 4.87129E-07
 -1       250 1.66786E-08-4.08511E-04 1.74519E-05
 -1       251 3.12260E-06-2.57242E-04-1.03366E-06
 -1       252 1.64532E-08-3.12270E-04-1.58966E-06
 -1       253-3.08106E-06-2.57241E-04-1.02869E-06
 -1       254 1.67039E-08-4.41778E-04-2.54190E-05
 -1       255 1.20228E-08-2.59786E-04-3.21170E-06
 -1       256 2.93175E-09-1.60708E-04 3.95334E-05
 -1       257-4.14554E-06-1.74877E-04-1.20331E-06
 -1       258 2.66079E-09-1.79107E-04-1.45314E-06
 -1       259 4.15409E-06-1.74877E-04-1.19724E-06
 -1       260 2.92979E-09-1.62187E-04-4.17985E-05
 -1       261 1.14478E-09-7.17231E-05-2.00728E-07
 -3
    1PSTEP                         2           2           1          
  100CL  102 1.00000E-02          81                     1    2           1
 -4  DISP        4    1
 -5  D1          1    2    1    0
 -5  D2          1    2    2    0
 -5  D3          1    2    3    0
 -5  ALL         1    2    0    0    1ALL
 -1         5 0.00000E+00 0.00000E+00 0.00000E+00
 -1         6 0.00000E+00 0.00000E+00 0.00000E+00
 -1         7 0.00000E+00 0.00000E+00 0.00000E+00
 -1         8 0.00000E+00 0.00000E+00 0.00000E+00
 -1        21 0.00000E+00 0.00000E+00 0.00000E+00
 -1        22 0.00000E+00 0.00000E+00 0.00000E+00
 -1        23 0.00000E+00 0.00000E+00 0.00000E+00
 -1        24 0.00000E+00 0.00000E+00 0.00000E+00
 -1        25 0.00000E+00 0.00000E+00 0.00000E+00
 -1        26 0.00000E+00 0.00000E+00 0.00000E+00
 -1        27 0.00000E+00 0.00000E+00 0.00000E+00
 -1        28 0.00000E+00 0.00000E+00 0.00000E+00
 -1        29 0.00000E+00 0.00000E+00 0.00000E+00
 -1        30 0.00000E+00 0.00000E+00 0.00000E+00
 -1        31 0.00000E+00 0.00000E+00 0.00000E+00
 -1        32 0.00000E+00 0.00000E+00 0.00000E+00
 -1        44-1.55464E-05 1.60557E-04-2.33962E-05
 -1        45-3.72851E-06 1.24807E-04-3.77263E-05
 -1        46 4.24123E-06 9.14221E-05-4.32229E-05
 -1        47-5.34200E-06 3.70298E-05-2.84053E-05
 -1        48 5.34174E-06 3.70318E-05-2.84065E-05
 -1        49-4.24479E-06 9.14223E-05-4.32206E-05
 -1        50 3.73949E-06 1.24803E-04-3.77266E-05
 -1        51 1.55629E-05 1.60530E-04-2.33952E-05
 -1        74 1.50590E-05 1.61541E-04 2.34187E-05
 -1        75 3.38407E-06 1.25284E-04 3.77213E-05
 -1        76-4.08416E-06 9.12114E-05 4.32113E-05
 -1        77 5.44282E-06 3.68786E-05 2.84138E-05
 -1        89-1.50417E-05 1.61570E-04 2.34197E-05
 -1        90-3.36964E-06 1.25290E-04 3.77197E-05
 -1        91 4.07997E-06 9.12116E-05 4.32134E-05
 -1        92-5.44248E-06 3.68769E-05 2.84122E-05
 -1        98 0.00000E+00 0.00000E+00 0.00000E+00
 -1        99 0.00000E+00 0.00000E+00 0.00000E+00
 -1       100 0.00000E+00 0.00000E+00 0.00000E+00
 -1       101 0.00000E+00 0.00000E+00 0.00000E+00
 -1       102 0.00000E+00 0.00000E+00 0.00000E+00
 -1       124 8.15728E-07 1.48081E-04-2.20555E-05
 -1       125 1.51665E-08 1.76770E-04-2.31255E-05
 -1       126-7.97351E-07 1.48084E-04-2.20575E-05
 -1       127 1.31240E-09 1.30146E-04-4.17747E-05
 -1       128-4.13576E-07 9.58875E-05-4.63523E-05
 -1       129 2.85437E-09 8.89991E-05-4.72579E-05
 -1       130 4.15928E-07 9.58896E-05-4.63534E-05
 -1       131-7.30894E-10 3.75429E-05-2.76061E-05
 -1       153 1.26585E-05 1.91355E-04-1.03951E-05
 -1       154 4.15639E-08 1.69508E-04 1.84671E-08
 -1       155-1.25566E-05 1.91974E-04 1.04119E-05
 -1       156 9.46527E-08 1.40667E-04 6.29881E-08
 -1       157-2.53974E-06 7.93725E-05-1.86074E-05
 -1       158-4.20254E-08 8.10019E-05 2.75026E-08
 -1       159 2.50820E-06 7.92485E-05 1.86163E-05
 -1       160-3.05517E-08 3.08101E-05-3.03597E-09
 -1       182 3.86606E-07 1.47674E-04 2.20748E-05
 -1       183 1.91538E-08 1.77447E-04 2.31507E-05
 -1       184-3.63823E-07 1.47678E-04 2.20760E-05
 -1       185 1.20698E-09 1.30326E-04 4.17139E-05
 -1       186-2.96285E-07 9.60376E-05 4.63729E-05
 -1       187 4.25076E-09 8.89332E-05 4.72525E-05
 -1       188 2.99674E-07 9.60401E-05 4.63742E-05
 -1       189-5.52312E-10 3.75224E-05 2.76075E-05
 -1       211 1.25591E-05 1.91995E-04 1.04138E-05
 -1       212-3.81137E-08 1.69509E-04 1.19418E-08
 -1       213-1.26560E-05 1.91333E-04-1.03924E-05
 -1       214-9.43862E-08 1.40668E-04 5.79636E-08
 -1       215-2.50609E-06 7.92472E-05 1.86144E-05
 -1       216 4.72407E-08 8.10022E-05 2.48132E-08
 -1       217 2.54204E-06 7.93748E-05-1.86093E-05
 -1       218 3.09744E-08 3.08103E-05-2.57195E-09
 -1       250 2.09340E-09 1.91200E-04-1.02982E-05
 -1       251-2.02815E-07 1.20982E-04 3.55461E-09
 -1       252-1.36965E-08 1.54119E-04 6.06179E-09
 -1       253 1.94307E-07 1.20982E-04 8.57794E-09
 -1       254 4.40974E-09 1.91102E-04 1.03487E-05
 -1       255 1.66443E-09 1.37499E-04 1.71428E-08
 -1       256 5.70703E-10 7.82950E-05-2.07282E-05
 -1       257 6.35027E-08 9.14108E-05 4.28639E-09
 -1       258-1.02542E-09 8.12583E-05 7.85095E-09
 -1       259-6.29803E-08 9.14106E-05 5.35903E-09
 -1       260 1.20393E-09 7.83557E-05 2.07414E-05
 -1       261 1.34544E-09 3.48647E-05 2.50766E-09
 -3
    1PSTEP                         3           3           1          
  100CL  103 1.50000E-02          81                     1    3           1
 -4  DISP        4    1
 -5  D1          1    2    1    0
 -5  D2          1    2    2    0
 -5  D3          1    2    3    0
 -5  ALL         1    2    0    0    1ALL
 -1         5 0.00000E+00 0.00000E+00 0.00000E+00
 -1         6 0.00000E+00 0.00000E+00 0.00000E+00
 -1         7 0.00000E+00 0.00000E+00 0.00000E+00
 -1         8 0.00000E+00 0.00000E+00 0.00000E+00
 -1        21 0.00000E+00 0.00000E+00 0.00000E+00
 -1        22 0.00000E+00 0.00000E+00 0.00000E+00
 -1        23 0.00000E+00 0.00000E+00 0.00000E+00
 -1        24 0.00000E+00 0.00000E+00 0.00000E+00
 -1        25 0.00000E+00 0.00000E+00 0.00000E+00
 -1        26 0.00000E+00 0.00000E+00 0.00000E+00
 -1        27 0.00000E+00 0.00000E+00 0.00000E+00
 -1        28 0.00000E+00 0.00000E+00 0.00000E+00
 -1        29 0.00000E+00 0.00000E+00 0.00000E+00
 -1        30 0.00000E+00 0.00000E+00 0.00000E+00
 -1        31 0.00000E+00 0.00000E+00 0.00000E+00
 -1        32 0.00000E+00 0.00000E+00 0.00000E+00
 -1        44 1.25203E-05-1.26897E-04 1.85150E-05
 -1        45 2.99047E-06-9.87265E-05 2.98533E-05
 -1        46-3.40319E-06-7.24611E-05 3.41773E-05
 -1        47 4.20360E-06-2.93820E-05 2.25071E-05
 -1        48-4.20416E-06-2.93827E-05 2.25083E-05
 -1        49 3.40238E-06-7.24631E-05 3.41788E-05
 -1        50-2.99945E-06-9.87229E-05 2.98536E-05
 -1        51-1.25317E-05-1.26887E-04 1.85174E-05
 -1        74-1.22809E-05-1.27251E-04-1.85191E-05
 -1        75-2.82904E-06-9.89038E-05-2.98618E-05
 -1        76 3.34943E-06-7.24101E-05-3.41773E-05
 -1        77-4.24864E-06-2.93294E-05-2.25078E-05
 -1        89 1.22711E-05-1.27273E-04-1.85260E-05
 -1        90 2.81697E-06-9.89032E-05-2.98620E-05
 -1        91-3.34834E-06-7.24121E-05-3.41742E-05
 -1        92 4.24756E-06-2.93283E-05-2.25046E-05
 -1        98 0.00000E+00 0.00000E+00 0.00000E+00
 -1        99 0.00000E+00 0.00000E+00 0.00000E+00
 -1       100 0.00000E+00 0.00000E+00 0.00000E+00
 -1       101 0.00000E+00 0.00000E+00 0.00000E+00
 -1       102 0.00000E+00 0.00000E+00 0.00000E+00
 -1       124-7.01674E-07-1.17279E-04 1.74565E-05
 -1       125-7.40083E-09-1.39883E-04 1.83089E-05
 -1       126 6.90581E-07-1.17280E-04 1.74552E-05
 -1       127-2.32387E-09-1.03082E-04 3.30333E-05
 -1       128 3.39423E-07-7.59074E-05 3.66854E-05
 -1       129-2.47225E-09-7.04508E-05 3.74144E-05
 -1       130-3.42809E-07-7.59075E-05 3.66849E-05
 -1       131-7.77391E-11-2.97365E-05 2.18529E-05
 -1       153-1.01886E-05-1.51638E-04 8.23310E-06
 -1       154 2.61536E-08-1.34631E-04 2.62480E-09
 -1       155 1.01017E-05-1.52078E-04-8.22978E-06
 -1       156-2.63429E-08-1.11337E-04-2.29264E-08
 -1       157 2.04101E-06-6.29220E-05 1.47149E-05
 -1       158-3.43675E-09-6.42260E-05-9.47958E-09
 -1       159-2.02618E-06-6.28373E-05-1.47173E-05
 -1       160 6.59700E-09-2.43969E-05 8.62529E-10
 -1       182-3.33273E-07-1.17145E-04-1.74627E-05
 -1       183-1.27724E-08-1.40040E-04-1.83217E-05
 -1       184 3.17815E-07-1.17151E-04-1.74606E-05
 -1       185-1.55424E-09-1.03108E-04-3.29859E-05
 -1       186 2.57771E-07-7.59387E-05-3.66895E-05
 -1       187-3.50779E-09-7.03968E-05-3.74033E-05
 -1       188-2.61313E-07-7.59407E-05-3.66893E-05
 -1       189 2.14679E-11-2.97349E-05-2.18548E-05
 -1       211-1.01035E-05-1.52089E-04-8.22744E-06
 -1       212-2.57044E-08-1.34626E-04-3.52404E-09
 -1       213 1.01875E-05-1.51628E-04 8.22956E-06
 -1       214 2.01990E-08-1.11340E-04-2.07823E-08
 -1       215 2.02466E-06-6.28366E-05-1.47160E-05
 -1       216 6.30010E-10-6.42242E-05-6.31218E-09
 -1       217-2.04367E-06-6.29227E-05 1.47176E-05
 -1       218-7.85846E-09-2.43972E-05 2.48934E-09
 -1       250-3.98984E-09-1.51095E-04 8.15127E-06
 -1       251 1.66418E-07-9.57415E-05 5.95554E-09
 -1       252 9.49325E-10-1.21875E-04-3.89662E-09
 -1       253-1.66768E-07-9.57445E-05 4.67026E-09
 -1       254-6.71241E-09-1.50789E-04-8.17435E-06
 -1       255-1.81854E-09-1.08960E-04-3.74707E-09
 -1       256-1.88590E-09-6.19875E-05 1.64251E-05
 -1       257-3.99838E-08-7.24185E-05 2.01200E-10
 -1       258-1.63146E-09-6.42528E-05 1.00926E-09
 -1       259 3.73764E-08-7.24194E-05-4.40509E-10
 -1       260-2.42106E-09-6.20459E-05-1.64235E-05
 -1       261-7.88677E-10-2.76051E-05-1.06419E-09
 -3
    1PSTEP                         4           4           1          
  100CL  104 2.00000E-02          81                     1    4           1
 -4  DISP        4    1
 -5  D1          1    2    1    0
 -5  D2          1    2    2    0
 -5  D3          1    2    3    0
 -5  ALL         1    2    0    0    1ALL
 -1         5 0.00000E+00 0.00000E+00 0.00000E+00
 -1         6 0.00000E+00 0.00000E+00 0.00000E+00
 -1         7 0.00000E+00 0.00000E+00 0.00000E+00
 -1         8 0.00000E+00 0.00000E+00 0.00000E+00
 -1        21 0.00000E+00 0.00000E+00 0.00000E+00
 -1        22 0.00000E+00 0.00000E+00 0.00000E+00
 -1        23 0.00000E+00 0.00000E+00 0.00000E+00
 -1        24 0.00000E+00 0.00000E+00 0.00000E+00
 -1        25 0.00000E+00 0.00000E+00 0.00000E+00
 -1        26 0.00000E+00 0.00000E+00 0.00000E+00
 -1        27 0.00000E+00 0.00000E+00 0.00000E+00
 -1        28 0.00000E+00 0.00000E+00 0.00000E+00
 -1        29 0.00000E+00 0.00000E+00 0.00000E+00
 -1        30 0.00000E+00 0.00000E+00 0.00000E+00
 -1        31 0.00000E+00 0.00000E+00 0.00000E+00
 -1        32 0.00000E+00 0.00000E+00 0.00000E+00
 -1        44-9.64533E-06 9.87016E-05-1.43977E-05
 -1        45-2.28817E-06 7.67437E-05-2.31873E-05
 -1        46 2.60390E-06 5.62234E-05-2.65607E-05
 -1        47-3.28254E-06 2.27848E-05-1.74750E-05
 -1        48 3.28306E-06 2.27856E-05-1.74764E-05
 -1        49-2.60457E-06 5.62218E-05-2.65613E-05
 -1        50 2.29509E-06 7.67439E-05-2.31886E-05
 -1        51 9.65463E-06 9.86868E-05-1.43967E-05
 -1        74 9.33508E-06 9.89890E-05 1.43976E-05
 -1        75 2.12030E-06 7.69227E-05 2.31921E-05
 -1        76-2.54990E-06 5.61627E-05 2.65625E-05
 -1        77 3.33199E-06 2.27371E-05 1.74754E-05
 -1        89-9.32485E-06 9.89934E-05 1.43920E-05
 -1        90-2.11441E-06 7.69257E-05 2.31895E-05
 -1        91 2.54981E-06 5.61610E-05 2.65625E-05
 -1        92-3.33192E-06 2.27364E-05 1.74751E-05
 -1        98 0.00000E+00 0.00000E+00 0.00000E+00
 -1        99 0.00000E+00 0.00000E+00 0.00000E+00
 -1       100 0.00000E+00 0.00000E+00 0.00000E+00
 -1       101 0.00000E+00 0.00000E+00 0.00000E+00
 -1       102 0.00000E+00 0.00000E+00 0.00000E+00
 -1       124 5.95731E-07 9.10615E-05-1.35703E-05
 -1       125 8.80815E-09 1.08713E-04-1.42235E-05
 -1       126-5.84061E-07 9.10658E-05-1.35708E-05
 -1       127 1.66674E-09 8.00524E-05-2.56802E-05
 -1       128-2.64057E-07 5.89652E-05-2.85039E-05
 -1       129 1.70658E-09 5.47278E-05-2.90667E-05
 -1       130 2.65853E-07 5.89666E-05-2.85038E-05
 -1       131-1.64237E-10 2.30922E-05-1.69773E-05
 -1       153 7.87361E-06 1.17681E-04-6.39613E-06
 -1       154-5.78067E-08 1.04491E-04 2.90298E-09
 -1       155-7.74858E-06 1.18066E-04 6.39650E-06
 -1       156-1.43867E-09 8.65542E-05 2.44463E-08
 -1       157-1.58055E-06 4.88297E-05-1.14427E-05
 -1       158 2.15312E-08 4.97958E-05 5.76460E-09
 -1       159 1.55780E-06 4.87453E-05 1.14406E-05
 -1       160-3.62875E-10 1.89291E-05-6.99563E-10
 -1       182 1.90243E-07 9.09649E-05 1.35712E-05
 -1       183 6.42309E-09 1.08823E-04 1.42333E-05
 -1       184-1.80463E-07 9.09637E-05 1.35698E-05
 -1       185 1.49046E-09 8.00309E-05 2.56471E-05
 -1       186-1.81845E-07 5.89875E-05 2.85063E-05
 -1       187 1.44848E-09 5.47066E-05 2.90515E-05
 -1       188 1.83640E-07 5.89874E-05 2.85061E-05
 -1       189-1.28951E-10 2.30993E-05 1.69773E-05
 -1       211 7.75463E-06 1.18071E-04 6.39640E-06
 -1       212 6.56182E-08 1.04494E-04-2.04205E-09
 -1       213-7.86663E-06 1.17672E-04-6.39980E-06
 -1       214 3.21730E-09 8.65525E-05 2.10584E-08
 -1       215-1.55556E-06 4.87446E-05 1.14384E-05
 -1       216-1.81266E-08 4.97970E-05 3.97024E-09
 -1       217 1.58228E-06 4.88302E-05-1.14437E-05
 -1       218 7.10269E-10 1.89288E-05-8.66769E-10
 -1       250 3.28003E-09 1.17644E-04-6.33659E-06
 -1       251-1.49987E-07 7.43304E-05-4.21738E-09
 -1       252-2.98154E-09 9.48848E-05 1.17351E-08
 -1       253 1.51893E-07 7.43289E-05-2.13673E-09
 -1       254 2.30071E-09 1.17365E-04 6.35495E-06
 -1       255 1.98015E-09 8.46147E-05-2.68805E-09
 -1       256 7.01373E-10 4.81255E-05-1.27529E-05
 -1       257 3.11151E-08 5.62434E-05-5.54358E-10
 -1       258-1.51918E-10 4.99249E-05-1.10978E-09
 -1       259-2.99206E-08 5.62428E-05 4.61946E-10
 -1       260 5.09650E-10 4.81883E-05 1.27532E-05
 -1       261 5.86327E-10 2.14272E-05-5.33480E-10
 -3
    1PSTEP                         5           5           1          
  100CL  105 2.50000E-02          81                     1    5           1
 -4  DISP        4    1
 -5  D1          1    2    1    0
 -5  D2          1    2    2    0
 -5  D3          1    2    3    0
 -5  ALL         1    2    0    0    1ALL
 -1         5 0.00000E+00 0.00000E+00 0.00000E+00
 -1         6 0.00000E+00 0.00000E+00 0.00000E+00
 -1         7 0.00000E+00 0.00000E+00 0.00000E+00
 -1         8 0.00000E+00 0.00000E+00 0.00000E+00
 -1        21 0.00000E+00 0.00000E+00 0.00000E+00
 -1        22 0.00000E+00 0.00000E+00 0.00000E+00
 -1        23 0.00000E+00 0.00000E+00 0.00000E+00
 -1        24 0.00000E+00 0.00000E+00 0.00000E+00
 -1        25 0.00000E+00 0.00000E+00 0.00000E+00
 -1        26 0.00000E+00 0.00000E+00 0.00000E+00
 -1        27 0.00000E+00 0.00000E+00 0.00000E+00
 -1        28 0.00000E+00 0.00000E+00 0.00000E+00
 -1        29 0.00000E+00 0.00000E+00 0.00000E+00
 -1        30 0.00000E+00 0.00000E+00 0.00000E+00
 -1        31 0.00000E+00 0.00000E+00 0.00000E+00
 -1        32 0.00000E+00 0.00000E+00 0.00000E+00
 -1        44 7.43579E-06-7.45193E-05 1.08723E-05
 -1        45 1.76566E-06-5.79805E-05 1.75232E-05
 -1        46-1.98082E-06-4.24280E-05 2.00491E-05
 -1        47 2.46817E-06-1.72069E-05 1.31996E-05
 -1        48-2.46869E-06-1.72081E-05 1.32008E-05
 -1        49 1.98086E-06-4.24286E-05 2.00493E-05
 -1        50-1.77662E-06-5.79772E-05 1.75268E-05
 -1        51-7.45298E-06-7.45047E-05 1.08773E-05
 -1        74-7.12931E-06-7.48223E-05-1.08765E-05
 -1        75-1.60060E-06-5.81612E-05-1.75267E-05
 -1        76 1.92283E-06-4.23628E-05-2.00484E-05
 -1        77-2.51745E-06-1.71595E-05-1.32013E-05
 -1        89 7.11278E-06-7.48427E-05-1.08759E-05
 -1        90 1.58963E-06-5.81623E-05-1.75238E-05
 -1        91-1.92219E-06-4.23636E-05-2.00479E-05
 -1        92 2.51689E-06-1.71580E-05-1.31996E-05
 -1        98 0.00000E+00 0.00000E+00 0.00000E+00
 -1        99 0.00000E+00 0.00000E+00 0.00000E+00
 -1       100 0.00000E+00 0.00000E+00 0.00000E+00
 -1       101 0.00000E+00 0.00000E+00 0.00000E+00
 -1       102 0.00000E+00 0.00000E+00 0.00000E+00
 -1       124-6.04817E-07-6.87936E-05 1.02557E-05
 -1       125-1.22114E-08-8.21279E-05 1.07492E-05
 -1       126 5.86788E-07-6.87948E-05 1.02549E-05
 -1       127-2.90938E-09-6.04656E-05 1.94003E-05
 -1       128 2.23319E-07-4.45190E-05 2.15333E-05
 -1       129-2.71598E-09-4.13411E-05 2.19707E-05
 -1       130-2.26645E-07-4.45200E-05 2.15330E-05
 -1       131 1.26801E-10-1.74313E-05 1.28207E-05
 -1       153-6.05211E-06-8.88732E-05 4.83536E-06
 -1       154 5.17703E-08-7.91918E-05-7.84079E-09
 -1       155 5.93657E-06-8.92496E-05-4.83938E-06
 -1       156-4.43222E-09-6.54006E-05-2.03382E-08
 -1       157 1.22672E-06-3.68894E-05 8.64009E-06
 -1       158-1.95825E-08-3.76007E-05-9.05569E-09
 -1       159-1.20799E-06-3.68066E-05-8.64136E-06
 -1       160 1.40140E-09-1.42685E-05-1.01525E-09
 -1       182-2.06774E-07-6.86878E-05-1.02568E-05
 -1       183-1.29691E-08-8.22624E-05-1.07563E-05
 -1       184 1.88370E-07-6.86922E-05-1.02579E-05
 -1       185-2.88071E-09-6.04557E-05-1.93717E-05
 -1       186 1.41041E-07-4.45420E-05-2.15354E-05
 -1       187-2.60015E-09-4.13132E-05-2.19569E-05
 -1       188-1.43980E-07-4.45437E-05-2.15351E-05
 -1       189 2.12549E-10-1.74343E-05-1.28194E-05
 -1       211-5.94608E-06-8.92630E-05-4.83651E-06
 -1       212-6.22836E-08-7.91901E-05-1.26698E-10
 -1       213 6.04285E-06-8.88612E-05 4.83680E-06
 -1       214 1.30935E-10-6.54013E-05-1.48146E-08
 -1       215 1.20491E-06-3.68055E-05-8.63893E-06
 -1       216 1.45585E-08-3.75998E-05-5.86353E-09
 -1       217-1.23017E-06-3.68902E-05 8.64319E-06
 -1       218-2.19300E-09-1.42686E-05-3.88617E-10
 -1       250-5.05755E-09-8.89767E-05 4.79697E-06
 -1       251 1.36145E-07-5.61165E-05-1.00752E-10
 -1       252 3.92447E-09-7.16534E-05 3.53513E-09
 -1       253-1.39088E-07-5.61175E-05-5.25335E-09
 -1       254-5.26610E-09-8.87190E-05-4.79358E-06
 -1       255-2.95219E-09-6.39442E-05 1.44633E-09
 -1       256-1.32979E-09-3.63045E-05 9.63453E-06
 -1       257-2.93681E-08-4.24928E-05 1.68306E-09
 -1       258-3.67169E-10-3.76708E-05-6.44603E-10
 -1       259 2.70466E-08-4.24932E-05 3.18475E-10
 -1       260-1.32227E-09-3.63618E-05-9.63819E-06
 -1       261-9.69254E-10-1.61773E-05-5.10242E-12
 -3
    1PSTEP                         6           6           1          
  100CL  106 3.00000E-02          81                     1    6           1
 -4  DISP        4    1
 -5  D1          1    2    1    0
 -5  D2          1    2    2    0
 -5  D3          1    2    3    0
 -5  ALL         1    2    0    0    1ALL
 -1         5 0.00000E+00 0.00000E+00 0.00000E+00
 -1         6 0.00000E+00 0.00000E+00 0.00000E+00
 -1         7 0.00000E+00 0.00000E+00 0.00000E+00
 -1         8 0.00000E+00 0.00000E+00 0.00000E+00
 -1        21 0.00000E+00 0.00000E+00 0.00000E+00
 -1        22 0.00000E+00 0.00000E+00 0.00000E+00
 -1        23 0.00000E+00 0.00000E+00 0.00000E+00
 -1        24 0.00000E+00 0.00000E+00 0.00000E+00
 -1        25 0.00000E+00 0.00000E+00 0.00000E+00
 -1        26 0.00000E+00 0.00000E+00 0.00000E+00
 -1        27 0.00000E+00 0.00000E+00 0.00000E+00
 -1        28 0.00000E+00 0.00000E+00 0.00000E+00
 -1        29 0.00000E+00 0.00000E+00 0.00000E+00
 -1        30 0.00000E+00 0.00000E+00 0.00000E+00
 -1        31 0.00000E+00 0.00000E+00 0.00000E+00
 -1        32 0.00000E+00 0.00000E+00 0.00000E+00
 -1        44-5.26172E-06 5.40840E-05-7.88221E-06
 -1        45-1.24337E-06 4.20461E-05-1.26980E-05
 -1        46 1.41531E-06 3.07543E-05-1.45434E-05
 -1        47-1.80127E-06 1.24633E-05-9.56453E-06