
 displacements (vx,vy,vz) for set NALL and time  0.5000000E-02

         5  0.000000E+00  0.000000E+00  0.000000E+00
         6  0.000000E+00  0.000000E+00  0.000000E+00
         7  0.000000E+00  0.000000E+00  0.000000E+00
         8  0.000000E+00  0.000000E+00  0.000000E+00
        21  0.000000E+00  0.000000E+00  0.000000E+00
        22  0.000000E+00  0.000000E+00  0.000000E+00
        23  0.000000E+00  0.000000E+00  0.000000E+00
        24  0.000000E+00  0.000000E+00  0.000000E+00
        25  0.000000E+00  0.000000E+00  0.000000E+00
        26  0.000000E+00  0.000000E+00  0.000000E+00
        27  0.000000E+00  0.000000E+00  0.000000E+00
        28  0.000000E+00  0.000000E+00  0.000000E+00
        29  0.000000E+00  0.000000E+00  0.000000E+00
        30  0.000000E+00  0.000000E+00  0.000000E+00
        31  0.000000E+00  0.000000E+00  0.000000E+00
        32  0.000000E+00  0.000000E+00  0.000000E+00
        44 -6.351296E-03 -3.471307E-01  4.481146E-02
        45  5.519046E-03 -2.564851E-01  7.860305E-02
        46 -4.659631E-03 -1.793628E-01  9.491756E-02
        47  1.314636E-02 -6.740730E-02  5.429224E-02
        48 -1.314699E-02 -6.740786E-02  5.429358E-02
        49  4.653207E-03 -1.793663E-01  9.492339E-02
        50 -5.525856E-03 -2.564836E-01  7.860964E-02
        51  6.326646E-03 -3.471285E-01  4.482667E-02
        74  3.213805E-02 -4.418929E-01 -4.945871E-02
        75  1.925941E-02 -2.975432E-01 -7.853475E-02
        76 -1.115392E-02 -1.595281E-01 -9.499636E-02
        77 -2.083162E-02 -5.256828E-02 -5.580128E-02
        89 -3.215749E-02 -4.418928E-01 -4.944054E-02
        90 -1.926674E-02 -2.975415E-01 -7.852346E-02
        91  1.114866E-02 -1.595265E-01 -9.499213E-02
        92  2.083031E-02 -5.256776E-02 -5.579987E-02
        98  0.000000E+00  0.000000E+00  0.000000E+00
        99  0.000000E+00  0.000000E+00  0.000000E+00
       100  0.000000E+00  0.000000E+00  0.000000E+00
       101  0.000000E+00  0.000000E+00  0.000000E+00
       102  0.000000E+00  0.000000E+00  0.000000E+00
       124  1.476409E-02 -2.964410E-01  4.292205E-02
       125 -3.515589E-06 -3.590048E-01  4.485736E-02
       126 -1.477551E-02 -2.964349E-01  4.291667E-02
       127 -6.526808E-06 -2.562103E-01  9.029385E-02
       128 -8.878080E-04 -1.953118E-01  9.481555E-02
       129  3.961500E-07 -1.814669E-01  9.413634E-02
       130  8.840868E-04 -1.953118E-01  9.481196E-02
       131 -3.231326E-07 -7.363343E-02  5.564047E-02
       153  7.143958E-03 -3.635175E-01  1.907254E-02
       154 -1.210422E-02 -2.501552E-01 -2.100892E-03
       155 -6.659472E-03 -3.887986E-01 -2.380595E-02
       156 -1.205638E-02 -2.788728E-01 -6.468112E-03
       157 -2.078352E-03 -1.508711E-01  3.923508E-02
       158  8.855978E-03 -1.567057E-01 -2.962386E-03
       159  4.676288E-03 -1.475350E-01 -4.112733E-02
       160  3.991757E-03 -6.566178E-02  4.835298E-04
       182  1.122326E-02 -2.560333E-01 -4.709877E-02
       183 -7.668833E-06 -4.357136E-01 -4.764428E-02
       184 -1.123784E-02 -2.560259E-01 -4.709516E-02
       185 -5.464132E-06 -2.833242E-01 -8.731609E-02
       186 -4.375504E-03 -2.162819E-01 -9.827582E-02
       187 -8.682238E-07 -1.831784E-01 -9.637091E-02
       188  4.371571E-03 -2.162828E-01 -9.827239E-02
       189 -1.662650E-07 -7.197208E-02 -5.645850E-02
       211  6.627393E-03 -3.887935E-01 -2.379234E-02
       212  1.208590E-02 -2.501526E-01 -2.085867E-03
       213 -7.172731E-03 -3.635187E-01  1.908802E-02
       214  1.205363E-02 -2.788740E-01 -6.459789E-03
       215 -4.680782E-03 -1.475343E-01 -4.112305E-02
       216 -8.865854E-03 -1.567041E-01 -2.958729E-03
       217  2.071940E-03 -1.508712E-01  3.923954E-02
       218 -3.994237E-03 -6.566168E-02  4.848097E-04
       250 -5.516979E-06 -4.084191E-01  1.748298E-02
       251  3.039158E-03 -2.572554E-01 -1.052092E-03
       252 -9.435374E-06 -3.121962E-01 -1.513315E-03
       253 -3.062789E-03 -2.572603E-01 -1.054370E-03
       254 -8.974382E-06 -4.416066E-01 -2.540155E-02
       255 -6.184402E-06 -2.598832E-01 -3.199456E-03
       256 -6.816917E-07 -1.606915E-01  3.954030E-02
       257 -4.121211E-03 -1.749027E-01 -1.202542E-03
       258 -1.128475E-06 -1.790583E-01 -1.465280E-03
       259  4.116568E-03 -1.749028E-01 -1.205236E-03
       260 -1.059965E-06 -1.621953E-01 -4.181525E-02
       261 -4.081058E-07 -7.171879E-02 -2.031236E-04

 forces (fx,fy,fz) for set NALL and time  0.5000000E-02

         5  2.273180E+00 -4.161596E+00 -1.107402E+00
         6 -2.273058E+00 -4.161421E+00 -1.107265E+00
         7  3.443082E+00  1.110125E+00  1.269284E+00
         8 -3.443500E+00  1.110773E+00  1.269143E+00
        21 -2.739191E+00  5.559548E+00 -1.788944E+01
        22 -9.913861E-05 -9.889892E+00 -6.645420E-01
        23  2.738927E+00  5.558551E+00 -1.788933E+01
        24 -4.633234E+00  1.709333E+01 -1.021328E+01
        25  8.611890E-01 -1.148379E+01 -4.646739E-01
        26  2.138000E+00  1.339350E+01  1.050305E+01
        27 -1.773993E+00 -4.701429E-01  1.759632E+01
        28 -2.222900E-04 -1.594998E+00  1.777676E+00
        29  1.774042E+00 -4.712110E-01  1.759638E+01
        30 -2.136688E+00  1.339309E+01  1.050248E+01
        31 -8.621623E-01 -1.148362E+01 -4.648957E-01
        32  4.634498E+00  1.709351E+01 -1.021404E+01
        44  1.767147E+00  5.174279E+01  1.442109E+00
        45 -7.051719E-04 -6.039728E-01  1.541540E-01
        46  5.380094E-04  1.538451E+00 -4.637924E-01
        47 -1.866324E-04 -1.166204E+00  5.405092E-01
        48  2.055859E-04 -1.166074E+00  5.405674E-01
        49 -4.820333E-04  1.538511E+00 -4.638119E-01
        50  5.253193E-04 -6.042048E-01  1.541118E-01
        51 -1.766093E+00  5.174577E+01  1.441878E+00
        74 -7.260775E+00  1.738862E+01 -9.819268E-01
        75  7.218212E-05 -6.124345E-01 -1.514104E-01
        76 -1.701543E-04  1.544515E+00  4.630029E-01
        77  4.050227E-04 -1.167415E+00 -5.401532E-01
        89  7.264590E+00  1.738352E+01 -9.799338E-01
        90 -3.519415E-04 -6.120708E-01 -1.514049E-01
        91  2.172908E-04  1.544452E+00  4.630154E-01
        92 -3.458319E-04 -1.167642E+00 -5.401474E-01
        98 -6.440960E-04  3.802321E+01 -1.718015E+01
        99 -2.306576E-01 -7.621951E+00  6.594273E-01
       100 -1.034690E-03 -2.293722E+01 -3.900963E-01
       101  2.318772E-01 -7.621351E+00  6.596509E-01
       102 -1.580040E-04  3.531513E+01  1.650815E+01
       124  1.673249E+01  1.986004E+01 -6.292685E-01
       125  6.298055E-04  1.114822E+02  2.983078E+00
       126 -1.673101E+01  1.986498E+01 -6.298418E-01
       127  4.298529E-05 -1.208014E+00  3.074136E-01
       128  4.498923E-04 -2.611823E+00  9.371173E-01
       129 -1.939621E-05  3.076957E+00 -9.272846E-01
       130 -4.953988E-04 -2.611713E+00  9.370271E-01
       131  5.246409E-05 -2.332291E+00  1.080836E+00
       153  1.158762E+01 -1.325056E+02 -2.313769E+00
       154 -2.916605E+00  9.832347E+01  4.504296E-01
       155  4.114414E+00 -1.080326E+02  1.399588E+00
       156 -1.156470E-03 -1.215575E+00 -2.451439E-03
       157 -7.516392E-04 -2.612598E+00  7.018902E-01
       158  5.670670E-04  3.082801E+00  1.144113E-03
       159 -5.590750E-06 -2.618766E+00 -7.021854E-01
       160 -1.125629E-04 -2.333962E+00 -3.244226E-04
       182  7.672931E+00  6.550951E+01  4.095877E-01
       183  1.585982E-03  5.158017E+01 -1.373928E+00
       184 -7.673635E+00  6.551610E+01  4.070100E-01
       185  1.282824E-04 -6.752206E+00 -3.022272E-01
       186  2.575083E-04 -8.146642E+00 -9.345121E-01
       187 -4.742876E-05 -2.436902E+00  9.261175E-01
       188 -2.932495E-04 -8.146467E+00 -9.344755E-01
       189  3.916264E-05 -7.862115E+00 -1.079826E+00
       211 -4.121760E+00 -1.080293E+02  1.398113E+00
       212  2.926176E+00  9.832232E+01  4.521446E-01
       213 -1.159300E+01 -1.325076E+02 -2.312033E+00
       214  9.168551E-04 -1.215638E+00 -2.272409E-03
       215 -1.587365E-04 -2.618617E+00 -7.022077E-01
       216 -4.527632E-04  3.082792E+00  1.062736E-03
       217  6.163791E-04 -2.612735E+00  7.019121E-01
       218  5.333738E-05 -2.333933E+00 -4.524183E-04
       250  1.645731E-03 -2.940848E+02 -5.860786E+00
       251  5.226874E+00  8.835846E+01  5.086036E-01
       252  6.680588E-03  2.058602E+02  1.377685E+00
       253 -5.238280E+00  8.835421E+01  5.113813E-01
       254 -1.622114E-03 -2.686639E+02  1.543483E+00
       255  3.258913E-04 -2.431919E+00 -5.999408E-03
       256  8.287010E-05 -5.225269E+00  1.402782E+00
       257  7.118539E-04 -5.231332E+00 -2.624917E-03
       258 -6.388564E-05  6.166116E+00  2.356472E-03
       259 -6.807166E-04 -5.231310E+00 -2.648434E-03
       260  1.672397E-04 -5.238655E+00 -1.403954E+00
       261 -5.135253E-05 -4.668387E+00 -9.043266E-04

 displacements (vx,vy,vz) for set NALL and time  0.1000000E-01

         5  0.000000E+00  0.000000E+00  0.000000E+00
         6  0.000000E+00  0.000000E+00  0.000000E+00
         7  0.000000E+00  0.000000E+00  0.000000E+00
         8  0.000000E+00  0.000000E+00  0.000000E+00
        21  0.000000E+00  0.000000E+00  0.000000E+00
        22  0.000000E+00  0.000000E+00  0.000000E+00
        23  0.000000E+00  0.000000E+00  0.000000E+00
        24  0.000000E+00  0.000000E+00  0.000000E+00
        25  0.000000E+00  0.000000E+00  0.000000E+00
        26  0.000000E+00  0.000000E+00  0.000000E+00
        27  0.000000E+00  0.000000E+00  0.000000E+00
        28  0.000000E+00  0.000000E+00  0.000000E+00
        29  0.000000E+00  0.000000E+00  0.000000E+00
        30  0.000000E+00  0.000000E+00  0.000000E+00
        31  0.000000E+00  0.000000E+00  0.000000E+00
        32  0.000000E+00  0.000000E+00  0.000000E+00
        44 -1.521219E-02  1.609512E-01 -2.337596E-02
        45 -3.507949E-03  1.249805E-01 -3.771708E-02
        46  4.165453E-03  9.139114E-02 -4.321936E-02
        47 -5.397302E-03  3.697644E-02 -2.840817E-02
        48  5.396796E-03  3.697676E-02 -2.840757E-02
        49 -4.169099E-03  9.139161E-02 -4.321742E-02
        50  3.505128E-03  1.249789E-01 -3.771303E-02
        51  1.520549E-02  1.609360E-01 -2.337010E-02
        74  1.523276E-02  1.609960E-01  2.340918E-02
        75  3.524435E-03  1.249838E-01  3.773780E-02
        76 -4.137918E-03  9.138781E-02  4.323195E-02
        77  5.401901E-03  3.696621E-02  2.841560E-02
        89 -1.524692E-02  1.610036E-01  2.341412E-02
        90 -3.526214E-03  1.249853E-01  3.774090E-02
        91  4.133901E-03  9.138675E-02  4.323269E-02
        92 -5.402191E-03  3.696661E-02  2.841605E-02
        98  0.000000E+00  0.000000E+00  0.000000E+00
        99  0.000000E+00  0.000000E+00  0.000000E+00
       100  0.000000E+00  0.000000E+00  0.000000E+00
       101  0.000000E+00  0.000000E+00  0.000000E+00
       102  0.000000E+00  0.000000E+00  0.000000E+00
       124  3.582528E-04  1.479193E-01 -2.202322E-02
       125 -1.842779E-06  1.769774E-01 -2.311234E-02
       126 -3.684405E-04  1.479179E-01 -2.202596E-02
       127 -1.807755E-06  1.302046E-01 -4.172832E-02
       128 -3.172442E-04  9.593032E-02 -4.635992E-02
       129 -1.228576E-06  8.891429E-02 -4.724115E-02
       130  3.155023E-04  9.593212E-02 -4.636084E-02
       131 -5.035599E-07  3.753095E-02 -2.759823E-02
       153  1.256467E-02  1.919440E-01 -1.037777E-02
       154  1.286710E-05  1.696003E-01  2.423701E-05
       155 -1.259984E-02  1.917176E-01  1.040467E-02
       156  3.148860E-06  1.407101E-01  2.029417E-05
       157 -2.522266E-03  7.926925E-02 -1.859920E-02
       158 -2.355669E-05  8.098816E-02  5.777615E-06
       159  2.507878E-03  7.933152E-02  1.861497E-02
       160 -4.969200E-06  3.080374E-02 -2.527586E-06
       182  6.227651E-04  1.479243E-01  2.206749E-02
       183 -1.841247E-06  1.770538E-01  2.313744E-02
       184 -6.347913E-04  1.479188E-01  2.206624E-02
       185 -2.995019E-06  1.302690E-01  4.174835E-02
       186 -3.612215E-04  9.599731E-02  4.637718E-02
       187 -2.747342E-07  8.901183E-02  4.726591E-02
       188  3.597813E-04  9.599879E-02  4.637837E-02
       189 -5.046631E-07  3.755071E-02  2.760914E-02
       211  1.259394E-02  1.917216E-01  1.040816E-02
       212 -2.642795E-05  1.696032E-01  2.692794E-05
       213 -1.256991E-02  1.919388E-01 -1.037488E-02
       214 -1.402380E-05  1.407101E-01  2.217371E-05
       215 -2.510788E-03  7.933138E-02  1.861676E-02
       216  2.607678E-05  8.098847E-02  7.971830E-06
       217  2.520279E-03  7.926949E-02 -1.859669E-02
       218  5.314981E-06  3.080351E-02 -1.233792E-06
       250 -4.611942E-06  1.909070E-01 -1.028732E-02
       251  1.152660E-04  1.208900E-01  1.795663E-05
       252 -6.878560E-06  1.542646E-01  2.006177E-05
       253 -1.240550E-04  1.208908E-01  1.488376E-05
       254 -3.548518E-06  1.911918E-01  1.034397E-02
       255 -2.007847E-06  1.375772E-01  2.051233E-05
       256 -1.346578E-06  7.833180E-02 -2.073339E-02
       257 -1.494010E-05  9.142987E-02  1.027429E-05
       258 -1.648020E-06  8.120491E-02  9.884706E-06
       259  1.335458E-05  9.142919E-02  9.426121E-06
       260 -1.112337E-06  7.832525E-02  2.074794E-02
       261 -3.433583E-08  3.484132E-02 -5.253239E-08

 forces (fx,fy,fz) for set NALL and time  0.1000000E-01

         5 -1.676279E+00  3.818288E-01  9.243790E-01
         6  1.676485E+00  3.814664E-01  9.244278E-01
         7 -1.672064E+00  3.683374E-01 -9.245731E-01
         8  1.672499E+00  3.678617E-01 -9.247937E-01
        21  1.045169E+00 -1.634878E+00  8.954950E+00
        22 -1.932416E-04  7.164902E-01  1.413057E+00
        23 -1.044868E+00 -1.634257E+00  8.955225E+00
        24  1.162618E+00 -5.901846E+00  4.717515E+00
        25 -7.508604E-03  2.437634E+00 -1.065691E-04
        26 -1.160514E+00 -5.884741E+00 -4.716952E+00
        27  1.032046E+00 -1.629415E+00 -8.957352E+00
        28 -1.403169E-04  7.160394E-01 -1.414352E+00
        29 -1.031936E+00 -1.628512E+00 -8.957370E+00
        30  1.159958E+00 -5.884746E+00 -4.717047E+00
        31  8.516513E-03  2.437369E+00 -2.234317E-04
        32 -1.163175E+00 -5.901654E+00  4.717463E+00
        44 -6.215302E+00 -1.507646E+01 -7.509392E-01
        45  6.039537E-04  5.173077E-01 -1.320375E-01
        46 -4.612877E-04 -1.317769E+00  3.972684E-01
        47  1.607873E-04  9.989401E-01 -4.629859E-01
        48 -1.770227E-04  9.988280E-01 -4.630357E-01
        49  4.133404E-04 -1.317820E+00  3.972851E-01
        50 -4.498960E-04  5.175064E-01 -1.320014E-01
        51  6.214311E+00 -1.507907E+01 -7.509805E-01
        74  6.180842E+00 -1.501541E+01  7.509685E-01
        75 -6.129132E-05  5.245560E-01  1.296869E-01
        76  1.459137E-04 -1.322964E+00 -3.965916E-01
        77 -3.479080E-04  9.999770E-01  4.626809E-01
        89 -6.183543E+00 -1.501189E+01  7.513347E-01
        90  3.009274E-04  5.242445E-01  1.296822E-01
        91 -1.862891E-04 -1.322909E+00 -3.966023E-01
        92  2.972060E-04  1.000171E+00  4.626759E-01
        98 -5.210642E-06 -1.288169E+01  8.227585E+00
        99 -1.467758E-02  3.938081E+00 -1.247490E-03
       100  1.117882E-03  5.305530E+00 -4.633460E-04
       101  1.319135E-02  3.937970E+00 -1.074417E-03
       102 -1.600271E-04 -1.290212E+01 -8.226964E+00
       124 -6.526620E+00 -1.708406E+01  4.644688E-01
       125  8.697351E-04 -3.089070E+01 -1.395836E+00
       126  6.524331E+00 -1.708843E+01  4.641179E-01
       127 -3.682179E-05  1.034674E+00 -2.633082E-01
       128 -3.859412E-04  2.237188E+00 -8.027033E-01
       129  1.661548E-05 -2.635585E+00  7.942795E-01
       130  4.249203E-04  2.237094E+00 -8.026261E-01
       131 -4.494003E-05  1.997779E+00 -9.258153E-01
       153  4.642752E+00  5.180454E+01  1.168924E+00
       154  6.633910E-02 -3.298319E+01  4.171969E-04
       155 -4.669468E+00  5.169710E+01 -1.170060E+00
       156  9.900068E-04  1.041150E+00  2.098956E-03
       157  6.444098E-04  2.237852E+00 -6.012164E-01
       158 -4.857001E-04 -2.640591E+00 -9.794630E-04
       159  4.562137E-06  2.243135E+00  6.014686E-01
       160  9.681157E-05  1.999211E+00  2.779024E-04
       182 -6.421900E+00 -1.710276E+01 -4.627617E-01
       183 -3.393317E-04 -3.097447E+01  1.390890E+00
       184  6.421197E+00 -1.710883E+01 -4.635141E-01
       185 -1.098861E-04  1.077688E+00  2.588646E-01
       186 -2.208955E-04  2.272171E+00  8.004711E-01
       187  4.062778E-05 -2.618554E+00 -7.932787E-01
       188  2.515097E-04  2.272022E+00  8.004398E-01
       189 -3.354617E-05  2.028483E+00  9.249505E-01
       211  4.674728E+00  5.169725E+01 -1.170130E+00
       212 -7.491395E-02 -3.298157E+01  2.111176E-04
       213 -4.638575E+00  5.180372E+01  1.169162E+00
       214 -7.847585E-04  1.041204E+00  1.945603E-03
       215  1.361968E-04  2.243007E+00  6.014876E-01
       216  3.877913E-04 -2.640583E+00 -9.097581E-04
       217 -5.285493E-04  2.237969E+00 -6.012352E-01
       218 -4.608021E-05  1.999186E+00  3.875419E-04
       250  3.893383E-04  1.047072E+02  2.317911E+00
       251  1.222743E-01 -4.745972E+01  9.710421E-06
       252 -6.652414E-03 -6.962461E+01 -3.839680E-03
       253 -1.123254E-01 -4.745829E+01 -7.440617E-04
       254  1.393011E-03  1.049353E+02 -2.301729E+00
       255 -2.791562E-04  2.082958E+00  5.137451E-03
       256 -7.098641E-05  4.475766E+00 -1.201577E+00
       257 -6.100528E-04  4.480959E+00  2.247650E-03
       258  5.472553E-05 -5.281622E+00 -2.017377E-03
       259  5.833787E-04  4.480940E+00  2.267794E-03
       260 -1.432561E-04  4.487230E+00  1.202580E+00
       261  4.398758E-05  3.998817E+00  7.745779E-04

 displacements (vx,vy,vz) for set NALL and time  0.1500000E-01

         5  0.000000E+00  0.000000E+00  0.000000E+00
         6  0.000000E+00  0.000000E+00  0.000000E+00
         7  0.000000E+00  0.000000E+00  0.000000E+00
         8  0.000000E+00  0.000000E+00  0.000000E+00
        21  0.000000E+00  0.000000E+00  0.000000E+00
        22  0.000000E+00  0.000000E+00  0.000000E+00
        23  0.000000E+00  0.000000E+00  0.000000E+00
        24  0.000000E+00  0.000000E+00  0.000000E+00
        25  0.000000E+00  0.000000E+00  0.000000E+00
        26  0.000000E+00  0.000000E+00  0.000000E+00
        27  0.000000E+00  0.000000E+00  0.000000E+00
        28  0.000000E+00  0.000000E+00  0.000000E+00
        29  0.000000E+00  0.000000E+00  0.000000E+00
        30  0.000000E+00  0.000000E+00  0.000000E+00
        31  0.000000E+00  0.000000E+00  0.000000E+00
        32  0.000000E+00  0.000000E+00  0.000000E+00
        44  1.238122E-02 -1.272693E-01  1.851264E-02
        45  2.888957E-03 -9.887203E-02  2.990974E-02
        46 -3.368928E-03 -7.253584E-02  3.422682E-02
        47  4.234949E-03 -2.936631E-02  2.252349E-02
        48 -4.233798E-03 -2.936668E-02  2.252192E-02
        49  3.370170E-03 -7.253739E-02  3.422565E-02
        50 -2.880088E-03 -9.887420E-02  2.990836E-02
        51 -1.237381E-02 -1.272697E-01  1.851103E-02
        74 -1.198013E-02 -1.274508E-01 -1.852368E-02
        75 -2.700995E-03 -9.901445E-02 -2.992435E-02
        76  3.258867E-03 -7.245943E-02 -3.423776E-02
        77 -4.292588E-03 -2.933169E-02 -2.252384E-02
        89  1.199338E-02 -1.274487E-01 -1.852556E-02
        90  2.704743E-03 -9.901508E-02 -2.992498E-02
        91 -3.258480E-03 -7.245985E-02 -3.423807E-02
        92  4.292399E-03 -2.933299E-02 -2.252514E-02
        98  0.000000E+00  0.000000E+00  0.000000E+00
        99  0.000000E+00  0.000000E+00  0.000000E+00
       100  0.000000E+00  0.000000E+00  0.000000E+00
       101  0.000000E+00  0.000000E+00  0.000000E+00
       102  0.000000E+00  0.000000E+00  0.000000E+00
       124 -4.524686E-04 -1.173036E-01  1.743706E-02
       125  1.023975E-05 -1.401278E-01  1.831677E-02
       126  4.689976E-04 -1.172998E-01  1.743988E-02
       127  1.615147E-06 -1.032376E-01  3.305835E-02
       128  2.897848E-04 -7.600224E-02  3.674398E-02
       129  3.516698E-06 -7.043902E-02  3.746043E-02
       130 -2.862864E-04 -7.600239E-02  3.674376E-02
       131  2.223781E-07 -2.973689E-02  2.186795E-02
       153 -1.015980E-02 -1.522651E-01  8.216445E-03
       154  1.328716E-04 -1.348687E-01 -9.764716E-06
       155  1.000259E-02 -1.522599E-01 -8.227588E-03
       156  3.551111E-05 -1.115212E-01 -2.061305E-05
       157  2.045789E-03 -6.287581E-02  1.473090E-02
       158 -2.426527E-05 -6.421790E-02 -5.369045E-06
       159 -2.004963E-03 -6.286364E-02 -1.473177E-02
       160 -9.981675E-06 -2.438950E-02 -2.281195E-06
       182 -3.698707E-04 -1.172823E-01 -1.745335E-02
       183  7.512550E-06 -1.400904E-01 -1.832825E-02
       184  3.850221E-04 -1.172768E-01 -1.745340E-02
       185  1.358967E-06 -1.031620E-01 -3.302967E-02
       186  2.622240E-04 -7.601422E-02 -3.674873E-02
       187  1.110321E-06 -7.049976E-02 -3.744824E-02
       188 -2.611838E-04 -7.601546E-02 -3.674905E-02
       189 -2.381527E-07 -2.976298E-02 -2.186979E-02
       211 -1.000034E-02 -1.522570E-01 -8.229097E-03
       212 -1.231991E-04 -1.348742E-01 -8.336402E-06
       213  1.016259E-02 -1.522728E-01  8.216019E-03
       214 -2.801586E-05 -1.115229E-01 -2.276367E-05
       215  2.007284E-03 -6.286549E-02 -1.473316E-02
       216  2.404305E-05 -6.421918E-02 -8.015484E-06
       217 -2.043859E-03 -6.287620E-02  1.472873E-02
       218  9.677362E-06 -2.438983E-02 -2.927607E-06
       250  4.961690E-06 -1.511654E-01  8.163674E-03
       251 -5.952077E-05 -9.568897E-02 -6.463303E-06
       252 -1.629977E-06 -1.222367E-01 -6.905577E-06
       253  5.990492E-05 -9.568884E-02 -6.175084E-06
       254  2.043737E-06 -1.511749E-01 -8.179081E-03
       255  2.103212E-06 -1.091596E-01 -3.408536E-06
       256  1.744396E-06 -6.202151E-02  1.644449E-02
       257  1.178154E-05 -7.249470E-02 -3.059443E-06
       258  3.250286E-07 -6.422940E-02 -3.178455E-06
       259 -1.095881E-05 -7.249347E-02 -1.780077E-06
       260  8.889060E-07 -6.204537E-02 -1.645098E-02
       261  5.471651E-07 -2.758598E-02  9.969473E-07

 forces (fx,fy,fz) for set NALL and time  0.1500000E-01

         5  1.333179E+00 -3.029836E-01 -7.338695E-01
         6 -1.333224E+00 -3.026087E-01 -7.337553E-01
         7  1.314416E+00 -3.008638E-01  7.332009E-01
         8 -1.314741E+00 -3.003685E-01  7.332542E-01
        21 -8.219058E-01  1.289967E+00 -7.095745E+00
        22 -2.420990E-04 -5.468590E-01 -1.126443E+00
        23  8.219222E-01  1.289715E+00 -7.096041E+00
        24 -9.094154E-01  4.681862E+00 -3.736156E+00
        25 -1.447902E-02 -1.916880E+00 -2.369486E-03
        26  9.315297E-01  4.671293E+00  3.738188E+00
        27 -8.062749E-01  1.295214E+00  7.095652E+00
        28 -2.433417E-04 -5.445509E-01  1.130580E+00
        29  8.064627E-01  1.294767E+00  7.095816E+00
        30 -9.309821E-01  4.670805E+00  3.738294E+00
        31  1.356874E-02 -1.916655E+00 -2.285729E-03
        32  9.099659E-01  4.682345E+00 -3.736039E+00
        44  4.982174E+00  1.195620E+01  5.976323E-01
        45 -4.798599E-04 -4.113464E-01  1.049977E-01
        46  3.674896E-04  1.047975E+00 -3.159409E-01
        47 -1.295510E-04 -7.944578E-01  3.682129E-01
        48  1.424635E-04 -7.943686E-01  3.682525E-01
        49 -3.293568E-04  1.048016E+00 -3.159541E-01
        50  3.573352E-04 -4.115045E-01  1.049690E-01
        51 -4.981401E+00  1.195922E+01  5.978336E-01
        74 -4.846541E+00  1.194977E+01 -5.984760E-01
        75  4.763502E-05 -4.171113E-01 -1.031275E-01
        76 -1.162801E-04  1.052106E+00  3.154018E-01
        77  2.784427E-04 -7.952821E-01 -3.679701E-01
        89  4.849156E+00  1.194586E+01 -5.983314E-01
        90 -2.382216E-04 -4.168636E-01 -1.031238E-01
        91  1.483906E-04  1.052063E+00  3.154103E-01
        92 -2.381183E-04 -7.954365E-01 -3.679662E-01
        98 -1.905882E-04  1.017573E+01 -6.521266E+00
        99 -5.888547E-03 -3.140225E+00  1.447196E-03
       100 -3.355792E-04 -4.145034E+00  1.717352E-03
       101  6.609208E-03 -3.140048E+00  1.176460E-03
       102  2.030388E-04  1.016701E+01  6.518142E+00
       124  5.146634E+00  1.355677E+01 -3.737642E-01
       125  6.420119E-04  2.441545E+01  1.111042E+00
       126 -5.145504E+00  1.355928E+01 -3.731676E-01
       127  2.928633E-05 -8.227389E-01  2.093844E-01
       128  3.078466E-04 -1.779183E+00  6.383789E-01
       129 -1.321551E-05  2.095987E+00 -6.316769E-01
       130 -3.388466E-04 -1.779108E+00  6.383175E-01
       131  3.574189E-05 -1.588834E+00  7.363013E-01
       153 -3.800919E+00 -4.112251E+01 -9.297906E-01
       154  1.170260E-01  2.607799E+01 -1.459152E-04
       155  3.632204E+00 -4.105671E+01  9.306709E-01
       156 -7.865263E-04 -8.278879E-01 -1.668074E-03
       157 -5.133957E-04 -1.779712E+00  4.781405E-01
       158  3.862329E-04  2.099967E+00  7.781946E-04
       159 -3.224892E-06 -1.783913E+00 -4.783400E-01
       160 -7.754549E-05 -1.589975E+00 -2.210318E-04
       182  5.035092E+00  1.352177E+01  3.737541E-01
       183  1.668087E-03  2.439808E+01 -1.111933E+00
       184 -5.034847E+00  1.352619E+01  3.735640E-01
       185  8.739636E-05 -8.363764E-01 -2.058491E-01
       186  1.762281E-04 -1.786432E+00 -6.366027E-01
       187 -3.231323E-05  2.103014E+00  6.308795E-01
       188 -2.005752E-04 -1.786313E+00 -6.365778E-01
       189  2.668003E-05 -1.592679E+00 -7.356131E-01
       211 -3.636683E+00 -4.105287E+01  9.304680E-01
       212 -1.112174E-01  2.607646E+01  3.979432E-04
       213  3.797585E+00 -4.112657E+01 -9.300842E-01
       214  6.232900E-04 -8.279311E-01 -1.546110E-03
       215 -1.087228E-04 -1.783811E+00 -4.783551E-01
       216 -3.083655E-04  2.099962E+00  7.227576E-04
       217  4.212502E-04 -1.779805E+00  4.781554E-01
       218  3.719788E-05 -1.589955E+00 -3.082308E-04
       250  3.043780E-04 -8.278612E+01 -1.832824E+00
       251  5.466522E-02  3.775409E+01 -1.259645E-03
       252  2.593378E-03  5.482680E+01  1.528715E-03
       253 -6.075341E-02  3.775208E+01 -5.505814E-04
       254 -1.706137E-03 -8.272937E+01  1.829956E+00
       255  2.220222E-04 -1.656301E+00 -4.083759E-03
       256  5.645806E-05 -3.559472E+00  9.555995E-01
       257  4.855956E-04 -3.563602E+00 -1.786467E-03
       258 -4.352641E-05  4.200285E+00  1.602864E-03
       259 -4.643789E-04 -3.563587E+00 -1.802487E-03
       260  1.139360E-04 -3.568587E+00 -9.563949E-01
       261 -3.498425E-05 -3.180262E+00 -6.159631E-04

 displacements (vx,vy,vz) for set NALL and time  0.2000000E-01

         5  0.000000E+00  0.000000E+00  0.000000E+00
         6  0.000000E+00  0.000000E+00  0.000000E+00
         7  0.000000E+00  0.000000E+00  0.000000E+00
         8  0.000000E+00  0.000000E+00  0.000000E+00
        21  0.000000E+00  0.000000E+00  0.000000E+00
        22  0.000000E+00  0.000000E+00  0.000000E+00
        23  0.000000E+00  0.000000E+00  0.000000E+00
        24  0.000000E+00  0.000000E+00  0.000000E+00
        25  0.000000E+00  0.000000E+00  0.000000E+00
        26  0.000000E+00  0.000000E+00  0.000000E+00
        27  0.000000E+00  0.000000E+00  0.000000E+00
        28  0.000000E+00  0.000000E+00  0.000000E+00
        29  0.000000E+00  0.000000E+00  0.000000E+00
        30  0.000000E+00  0.000000E+00  0.000000E+00
        31  0.000000E+00  0.000000E+00  0.000000E+00
        32  0.000000E+00  0.000000E+00  0.000000E+00
        44 -9.689434E-03  9.875299E-02 -1.432741E-02
        45 -2.236525E-03  7.676118E-02 -2.319842E-02
        46  2.613064E-03  5.628048E-02 -2.655140E-02
        47 -3.281316E-03  2.279341E-02 -1.748405E-02
        48  3.280772E-03  2.279350E-02 -1.748302E-02
        49 -2.613390E-03  5.628126E-02 -2.655008E-02
        50  2.231795E-03  7.676113E-02 -2.319790E-02
        51  9.687448E-03  9.875168E-02 -1.432932E-02
        74  9.748516E-03  9.848972E-02  1.433912E-02
        75  2.304132E-03  7.665062E-02  2.320883E-02
        76 -2.660430E-03  5.635832E-02  2.656332E-02
        77  3.264458E-03  2.283245E-02  1.748592E-02
        89 -9.754350E-03  9.848787E-02  1.433728E-02
        90 -2.306745E-03  7.665108E-02  2.320900E-02
        91  2.659595E-03  5.635744E-02  2.656301E-02
        92 -3.264573E-03  2.283312E-02  1.748639E-02
        98  0.000000E+00  0.000000E+00  0.000000E+00
        99  0.000000E+00  0.000000E+00  0.000000E+00
       100  0.000000E+00  0.000000E+00  0.000000E+00
       101  0.000000E+00  0.000000E+00  0.000000E+00
       102  0.000000E+00  0.000000E+00  0.000000E+00
       124  4.185697E-04  9.096263E-02 -1.348855E-02
       125 -4.250891E-06  1.087954E-01 -1.416942E-02
       126 -4.261618E-04  9.096029E-02 -1.349024E-02
       127 -3.621440E-07  8.012509E-02 -2.563374E-02
       128 -2.303356E-04  5.900599E-02 -2.852020E-02
       129 -1.899149E-06  5.467901E-02 -2.908075E-02
       130  2.288450E-04  5.900633E-02 -2.852014E-02
       131 -2.450628E-07  2.307475E-02 -1.696618E-02
       153  7.950547E-03  1.181866E-01 -6.357089E-03
       154 -4.108337E-05  1.047694E-01  6.477961E-06
       155 -7.942369E-03  1.181476E-01  6.374639E-03
       156 -4.370061E-05  8.653743E-02 -5.045019E-06
       157 -1.599784E-03  4.881626E-02 -1.142769E-02
       158  2.686206E-05  4.987547E-02 -4.819686E-06
       159  1.596810E-03  4.883262E-02  1.142974E-02
       160  1.026212E-05  1.892967E-02  2.596450E-08
       182  3.665187E-04  9.109280E-02  1.350702E-02
       183 -2.238018E-06  1.085991E-01  1.418517E-02
       184 -3.727637E-04  9.108840E-02  1.350519E-02
       185 -1.144895E-06  8.006664E-02  2.565877E-02
       186 -2.326246E-04  5.898154E-02  2.852160E-02
       187 -7.737911E-07  5.472902E-02  2.908696E-02
       188  2.316826E-04  5.898188E-02  2.852156E-02
       189 -1.790181E-07  2.309740E-02  1.697105E-02
       211  7.944118E-03  1.181462E-01  6.371822E-03
       212  3.737187E-05  1.047720E-01  4.752730E-06
       213 -7.948517E-03  1.181890E-01 -6.356734E-03
       214  3.740687E-05  8.653819E-02 -4.659480E-06
       215 -1.598110E-03  4.883280E-02  1.143066E-02
       216 -2.540338E-05  4.987588E-02 -3.374479E-06
       217  1.599094E-03  4.881648E-02 -1.142661E-02
       218 -1.015437E-05  1.892964E-02  9.404610E-07
       250 -3.363618E-06  1.173166E-01 -6.312235E-03
       251 -5.521363E-06  7.420197E-02  5.874870E-06