    1C
    1UUSER                                                              
    1UDATE              18.july.2018                                    
    1UTIME              00:05:59                                        
    1UHOST                                                              
    1UPGM               CalculiX                                        
    1UVERSION           Version 2.13                             
    1UCOMPILETIME       jue jun 14 00:40:39 CEST 2018                    
    1UDIR                                                               
    1UDBN                                                               
    1UMAT    1EL                                                        
    2C                            81                                     1
 -1         5 0.00000E+00 0.00000E+00 8.00000E+00
 -1         6 1.00000E+00 0.00000E+00 8.00000E+00
 -1         7 1.00000E+00 1.00000E+00 8.00000E+00
 -1         8 0.00000E+00 1.00000E+00 8.00000E+00
 -1        21 2.50000E-01 0.00000E+00 8.00000E+00
 -1        22 5.00000E-01 0.00000E+00 8.00000E+00
 -1        23 7.50000E-01 0.00000E+00 8.00000E+00
 -1        24 1.00000E+00 2.50000E-01 8.00000E+00
 -1        25 1.00000E+00 5.00000E-01 8.00000E+00
 -1        26 1.00000E+00 7.50000E-01 8.00000E+00
 -1        27 7.50000E-01 1.00000E+00 8.00000E+00
 -1        28 5.00000E-01 1.00000E+00 8.00000E+00
 -1        29 2.50000E-01 1.00000E+00 8.00000E+00
 -1        30 0.00000E+00 7.50000E-01 8.00000E+00
 -1        31 0.00000E+00 5.00000E-01 8.00000E+00
 -1        32 0.00000E+00 2.50000E-01 8.00000E+00
 -1        44 1.00000E+00 0.00000E+00 6.00000E+00
 -1        45 1.00000E+00 0.00000E+00 6.50000E+00
 -1        46 1.00000E+00 0.00000E+00 7.00000E+00
 -1        47 1.00000E+00 0.00000E+00 7.50000E+00
 -1        48 0.00000E+00 0.00000E+00 7.50000E+00
 -1        49 0.00000E+00 0.00000E+00 7.00000E+00
 -1        50 0.00000E+00 0.00000E+00 6.50000E+00
 -1        51 0.00000E+00 0.00000E+00 6.00000E+00
 -1        74 1.00000E+00 1.00000E+00 6.00000E+00
 -1        75 1.00000E+00 1.00000E+00 6.50000E+00
 -1        76 1.00000E+00 1.00000E+00 7.00000E+00
 -1        77 1.00000E+00 1.00000E+00 7.50000E+00
 -1        89 0.00000E+00 1.00000E+00 6.00000E+00
 -1        90 0.00000E+00 1.00000E+00 6.50000E+00
 -1        91 0.00000E+00 1.00000E+00 7.00000E+00
 -1        92 0.00000E+00 1.00000E+00 7.50000E+00
 -1        98 5.00000E-01 2.50000E-01 8.00000E+00
 -1        99 2.50000E-01 5.00000E-01 8.00000E+00
 -1       100 5.00000E-01 5.00000E-01 8.00000E+00
 -1       101 7.50000E-01 5.00000E-01 8.00000E+00
 -1       102 5.00000E-01 7.50000E-01 8.00000E+00
 -1       124 2.50000E-01 0.00000E+00 6.00000E+00
 -1       125 5.00000E-01 0.00000E+00 6.00000E+00
 -1       126 7.50000E-01 0.00000E+00 6.00000E+00
 -1       127 5.00000E-01 0.00000E+00 6.50000E+00
 -1       128 2.50000E-01 0.00000E+00 7.00000E+00
 -1       129 5.00000E-01 0.00000E+00 7.00000E+00
 -1       130 7.50000E-01 0.00000E+00 7.00000E+00
 -1       131 5.00000E-01 0.00000E+00 7.50000E+00
 -1       153 1.00000E+00 2.50000E-01 6.00000E+00
 -1       154 1.00000E+00 5.00000E-01 6.00000E+00
 -1       155 1.00000E+00 7.50000E-01 6.00000E+00
 -1       156 1.00000E+00 5.00000E-01 6.50000E+00
 -1       157 1.00000E+00 2.50000E-01 7.00000E+00
 -1       158 1.00000E+00 5.00000E-01 7.00000E+00
 -1       159 1.00000E+00 7.50000E-01 7.00000E+00
 -1       160 1.00000E+00 5.00000E-01 7.50000E+00
 -1       182 7.50000E-01 1.00000E+00 6.00000E+00
 -1       183 5.00000E-01 1.00000E+00 6.00000E+00
 -1       184 2.50000E-01 1.00000E+00 6.00000E+00
 -1       185 5.00000E-01 1.00000E+00 6.50000E+00
 -1       186 7.50000E-01 1.00000E+00 7.00000E+00
 -1       187 5.00000E-01 1.00000E+00 7.00000E+00
 -1       188 2.50000E-01 1.00000E+00 7.00000E+00
 -1       189 5.00000E-01 1.00000E+00 7.50000E+00
 -1       211 0.00000E+00 7.50000E-01 6.00000E+00
 -1       212 0.00000E+00 5.00000E-01 6.00000E+00
 -1       213 0.00000E+00 2.50000E-01 6.00000E+00
 -1       214 0.00000E+00 5.00000E-01 6.50000E+00
 -1       215 0.00000E+00 7.50000E-01 7.00000E+00
 -1       216 0.00000E+00 5.00000E-01 7.00000E+00
 -1       217 0.00000E+00 2.50000E-01 7.00000E+00
 -1       218 0.00000E+00 5.00000E-01 7.50000E+00
 -1       250 5.00000E-01 2.50000E-01 6.00000E+00
 -1       251 2.50000E-01 5.00000E-01 6.00000E+00
 -1       252 5.00000E-01 5.00000E-01 6.00000E+00
 -1       253 7.50000E-01 5.00000E-01 6.00000E+00
 -1       254 5.00000E-01 7.50000E-01 6.00000E+00
 -1       255 5.00000E-01 5.00000E-01 6.50000E+00
 -1       256 5.00000E-01 2.50000E-01 7.00000E+00
 -1       257 2.50000E-01 5.00000E-01 7.00000E+00
 -1       258 5.00000E-01 5.00000E-01 7.00000E+00
 -1       259 7.50000E-01 5.00000E-01 7.00000E+00
 -1       260 5.00000E-01 7.50000E-01 7.00000E+00
 -1       261 5.00000E-01 5.00000E-01 7.50000E+00
 -3
    3C                             8                                     1
 -1        25    4    0    1
 -2        51       125       252       212        49       129       258       216       124       250
 -2       251       213        50       127       255       214       128       256       257       217
 -1        26    4    0    1
 -2       125        44       154       252       129        46       158       258       126       153
 -2       253       250       127        45       156       255       130       157       259       256
 -1        27    4    0    1
 -2       212       252       183        89       216       258       187        91       251       254
 -2       184       211       214       255       185        90       257       260       188       215
 -1        28    4    0    1
 -2       252       154        74       183       258       158        76       187       253       155
 -2       182       254       255       156        75       185       259       159       186       260
 -1        29    4    0    1
 -2        49       129       258       216         5        22       100        31       128       256
 -2       257       217        48       131       261       218        21        98        99        32
 -1        30    4    0    1
 -2       129        46       158       258        22         6        25       100       130       157
 -2       259       256       131        47       160       261        23        24       101        98
 -1        31    4    0    1
 -2       216       258       187        91        31       100        28         8       257       260
 -2       188       215       218       261       189        92        99       102        29        30
 -1        32    4    0    1
 -2       258       158        76       187       100        25         7        28       259       159
 -2       186       260       261       160        77       189       101        26        27       102
 -3
    1PSTEP                         1           1           1          
  100CL  101 5.00000E-03          81                     1    1           1
 -4  DISP        4    1
 -5  D1          1    2    1    0
 -5  D2          1    2    2    0
 -5  D3          1    2    3    0
 -5  ALL         1    2    0    0    1ALL
 -1         5 0.00000E+00 0.00000E+00 0.00000E+00
 -1         6 0.00000E+00 0.00000E+00 0.00000E+00
 -1         7 0.00000E+00 0.00000E+00 0.00000E+00
 -1         8 0.00000E+00 0.00000E+00 0.00000E+00
 -1        21 0.00000E+00 0.00000E+00 0.00000E+00
 -1        22 0.00000E+00 0.00000E+00 0.00000E+00
 -1        23 0.00000E+00 0.00000E+00 0.00000E+00
 -1        24 0.00000E+00 0.00000E+00 0.00000E+00
 -1        25 0.00000E+00 0.00000E+00 0.00000E+00
 -1        26 0.00000E+00 0.00000E+00 0.00000E+00
 -1        27 0.00000E+00 0.00000E+00 0.00000E+00
 -1        28 0.00000E+00 0.00000E+00 0.00000E+00
 -1        29 0.00000E+00 0.00000E+00 0.00000E+00
 -1        30 0.00000E+00 0.00000E+00 0.00000E+00
 -1        31 0.00000E+00 0.00000E+00 0.00000E+00
 -1        32 0.00000E+00 0.00000E+00 0.00000E+00
 -1        44-6.35130E-03-3.47131E-01 4.48115E-02
 -1        45 5.51905E-03-2.56485E-01 7.86031E-02
 -1        46-4.65963E-03-1.79363E-01 9.49176E-02
 -1        47 1.31464E-02-6.74073E-02 5.42922E-02
 -1        48-1.31470E-02-6.74079E-02 5.42936E-02
 -1        49 4.65321E-03-1.79366E-01 9.49234E-02
 -1        50-5.52586E-03-2.56484E-01 7.86096E-02
 -1        51 6.32665E-03-3.47129E-01 4.48267E-02
 -1        74 3.21380E-02-4.41893E-01-4.94587E-02
 -1        75 1.92594E-02-2.97543E-01-7.85348E-02
 -1        76-1.11539E-02-1.59528E-01-9.49964E-02
 -1        77-2.08316E-02-5.25683E-02-5.58013E-02
 -1        89-3.21575E-02-4.41893E-01-4.94405E-02
 -1        90-1.92667E-02-2.97542E-01-7.85235E-02
 -1        91 1.11487E-02-1.59527E-01-9.49921E-02
 -1        92 2.08303E-02-5.25678E-02-5.57999E-02
 -1        98 0.00000E+00 0.00000E+00 0.00000E+00
 -1        99 0.00000E+00 0.00000E+00 0.00000E+00
 -1       100 0.00000E+00 0.00000E+00 0.00000E+00
 -1       101 0.00000E+00 0.00000E+00 0.00000E+00
 -1       102 0.00000E+00 0.00000E+00 0.00000E+00
 -1       124 1.47641E-02-2.96441E-01 4.29220E-02
 -1       125-3.51559E-06-3.59005E-01 4.48574E-02
 -1       126-1.47755E-02-2.96435E-01 4.29167E-02
 -1       127-6.52681E-06-2.56210E-01 9.02938E-02
 -1       128-8.87808E-04-1.95312E-01 9.48156E-02
 -1       129 3.96150E-07-1.81467E-01 9.41363E-02
 -1       130 8.84087E-04-1.95312E-01 9.48120E-02
 -1       131-3.23133E-07-7.36334E-02 5.56405E-02
 -1       153 7.14396E-03-3.63517E-01 1.90725E-02
 -1       154-1.21042E-02-2.50155E-01-2.10089E-03
 -1       155-6.65947E-03-3.88799E-01-2.38060E-02
 -1       156-1.20564E-02-2.78873E-01-6.46811E-03
 -1       157-2.07835E-03-1.50871E-01 3.92351E-02
 -1       158 8.85598E-03-1.56706E-01-2.96239E-03
 -1       159 4.67629E-03-1.47535E-01-4.11273E-02
 -1       160 3.99176E-03-6.56618E-02 4.83530E-04
 -1       182 1.12233E-02-2.56033E-01-4.70988E-02
 -1       183-7.66883E-06-4.35714E-01-4.76443E-02
 -1       184-1.12378E-02-2.56026E-01-4.70952E-02
 -1       185-5.46413E-06-2.83324E-01-8.73161E-02
 -1       186-4.37550E-03-2.16282E-01-9.82758E-02
 -1       187-8.68224E-07-1.83178E-01-9.63709E-02
 -1       188 4.37157E-03-2.16283E-01-9.82724E-02
 -1       189-1.66265E-07-7.19721E-02-5.64585E-02
 -1       211 6.62739E-03-3.88794E-01-2.37923E-02
 -1       212 1.20859E-02-2.50153E-01-2.08587E-03
 -1       213-7.17273E-03-3.63519E-01 1.90880E-02
 -1       214 1.20536E-02-2.78874E-01-6.45979E-03
 -1       215-4.68078E-03-1.47534E-01-4.11231E-02
 -1       216-8.86585E-03-1.56704E-01-2.95873E-03
 -1       217 2.07194E-03-1.50871E-01 3.92395E-02
 -1       218-3.99424E-03-6.56617E-02 4.84810E-04
 -1       250-5.51698E-06-4.08419E-01 1.74830E-02
 -1       251 3.03916E-03-2.57255E-01-1.05209E-03
 -1       252-9.43537E-06-3.12196E-01-1.51331E-03
 -1       253-3.06279E-03-2.57260E-01-1.05437E-03
 -1       254-8.97438E-06-4.41607E-01-2.54015E-02
 -1       255-6.18440E-06-2.59883E-01-3.19946E-03
 -1       256-6.81692E-07-1.60691E-01 3.95403E-02
 -1       257-4.12121E-03-1.74903E-01-1.20254E-03
 -1       258-1.12847E-06-1.79058E-01-1.46528E-03
 -1       259 4.11657E-03-1.74903E-01-1.20524E-03
 -1       260-1.05997E-06-1.62195E-01-4.18153E-02
 -1       261-4.08106E-07-7.17188E-02-2.03124E-04
 -3
    1PSTEP                         2           2           1          
  100CL  102 1.00000E-02          81                     1    2           1
 -4  DISP        4    1
 -5  D1          1    2    1    0
 -5  D2          1    2    2    0
 -5  D3          1    2    3    0
 -5  ALL         1    2    0    0    1ALL
 -1         5 0.00000E+00 0.00000E+00 0.00000E+00
 -1         6 0.00000E+00 0.00000E+00 0.00000E+00
 -1         7 0.00000E+00 0.00000E+00 0.00000E+00
 -1         8 0.00000E+00 0.00000E+00 0.00000E+00
 -1        21 0.00000E+00 0.00000E+00 0.00000E+00
 -1        22 0.00000E+00 0.00000E+00 0.00000E+00
 -1        23 0.00000E+00 0.00000E+00 0.00000E+00
 -1        24 0.00000E+00 0.00000E+00 0.00000E+00
 -1        25 0.00000E+00 0.00000E+00 0.00000E+00
 -1        26 0.00000E+00 0.00000E+00 0.00000E+00
 -1        27 0.00000E+00 0.00000E+00 0.00000E+00
 -1        28 0.00000E+00 0.00000E+00 0.00000E+00
 -1        29 0.00000E+00 0.00000E+00 0.00000E+00
 -1        30 0.00000E+00 0.00000E+00 0.00000E+00
 -1        31 0.00000E+00 0.00000E+00 0.00000E+00
 -1        32 0.00000E+00 0.00000E+00 0.00000E+00
 -1        44-1.52122E-02 1.60951E-01-2.33760E-02
 -1        45-3.50795E-03 1.24981E-01-3.77171E-02
 -1        46 4.16545E-03 9.13911E-02-4.32194E-02
 -1        47-5.39730E-03 3.69764E-02-2.84082E-02
 -1        48 5.39680E-03 3.69768E-02-2.84076E-02
 -1        49-4.16910E-03 9.13916E-02-4.32174E-02
 -1        50 3.50513E-03 1.24979E-01-3.77130E-02
 -1        51 1.52055E-02 1.60936E-01-2.33701E-02
 -1        74 1.52328E-02 1.60996E-01 2.34092E-02
 -1        75 3.52443E-03 1.24984E-01 3.77378E-02
 -1        76-4.13792E-03 9.13878E-02 4.32320E-02
 -1        77 5.40190E-03 3.69662E-02 2.84156E-02
 -1        89-1.52469E-02 1.61004E-01 2.34141E-02
 -1        90-3.52621E-03 1.24985E-01 3.77409E-02
 -1        91 4.13390E-03 9.13868E-02 4.32327E-02
 -1        92-5.40219E-03 3.69666E-02 2.84160E-02
 -1        98 0.00000E+00 0.00000E+00 0.00000E+00
 -1        99 0.00000E+00 0.00000E+00 0.00000E+00
 -1       100 0.00000E+00 0.00000E+00 0.00000E+00
 -1       101 0.00000E+00 0.00000E+00 0.00000E+00
 -1       102 0.00000E+00 0.00000E+00 0.00000E+00
 -1       124 3.58253E-04 1.47919E-01-2.20232E-02
 -1       125-1.84278E-06 1.76977E-01-2.31123E-02
 -1       126-3.68440E-04 1.47918E-01-2.20260E-02
 -1       127-1.80776E-06 1.30205E-01-4.17283E-02
 -1       128-3.17244E-04 9.59303E-02-4.63599E-02
 -1       129-1.22858E-06 8.89143E-02-4.72411E-02
 -1       130 3.15502E-04 9.59321E-02-4.63608E-02
 -1       131-5.03560E-07 3.75309E-02-2.75982E-02
 -1       153 1.25647E-02 1.91944E-01-1.03778E-02
 -1       154 1.28671E-05 1.69600E-01 2.42370E-05
 -1       155-1.25998E-02 1.91718E-01 1.04047E-02
 -1       156 3.14886E-06 1.40710E-01 2.02942E-05
 -1       157-2.52227E-03 7.92692E-02-1.85992E-02
 -1       158-2.35567E-05 8.09882E-02 5.77761E-06
 -1       159 2.50788E-03 7.93315E-02 1.86150E-02
 -1       160-4.96920E-06 3.08037E-02-2.52759E-06
 -1       182 6.22765E-04 1.47924E-01 2.20675E-02
 -1       183-1.84125E-06 1.77054E-01 2.31374E-02
 -1       184-6.34791E-04 1.47919E-01 2.20662E-02
 -1       185-2.99502E-06 1.30269E-01 4.17483E-02
 -1       186-3.61222E-04 9.59973E-02 4.63772E-02
 -1       187-2.74734E-07 8.90118E-02 4.72659E-02
 -1       188 3.59781E-04 9.59988E-02 4.63784E-02
 -1       189-5.04663E-07 3.75507E-02 2.76091E-02
 -1       211 1.25939E-02 1.91722E-01 1.04082E-02
 -1       212-2.64279E-05 1.69603E-01 2.69279E-05
 -1       213-1.25699E-02 1.91939E-01-1.03749E-02
 -1       214-1.40238E-05 1.40710E-01 2.21737E-05
 -1       215-2.51079E-03 7.93314E-02 1.86168E-02
 -1       216 2.60768E-05 8.09885E-02 7.97183E-06
 -1       217 2.52028E-03 7.92695E-02-1.85967E-02
 -1       218 5.31498E-06 3.08035E-02-1.23379E-06
 -1       250-4.61194E-06 1.90907E-01-1.02873E-02
 -1       251 1.15266E-04 1.20890E-01 1.79566E-05
 -1       252-6.87856E-06 1.54265E-01 2.00618E-05
 -1       253-1.24055E-04 1.20891E-01 1.48838E-05
 -1       254-3.54852E-06 1.91192E-01 1.03440E-02
 -1       255-2.00785E-06 1.37577E-01 2.05123E-05
 -1       256-1.34658E-06 7.83318E-02-2.07334E-02
 -1       257-1.49401E-05 9.14299E-02 1.02743E-05
 -1       258-1.64802E-06 8.12049E-02 9.88471E-06
 -1       259 1.33546E-05 9.14292E-02 9.42612E-06
 -1       260-1.11234E-06 7.83252E-02 2.07479E-02
 -1       261-3.43358E-08 3.48413E-02-5.25324E-08
 -3
    1PSTEP                         3           3           1          
  100CL  103 1.50000E-02          81                     1    3           1
 -4  DISP        4    1
 -5  D1          1    2    1    0
 -5  D2          1    2    2    0
 -5  D3          1    2    3    0
 -5  ALL         1    2    0    0    1ALL
 -1         5 0.00000E+00 0.00000E+00 0.00000E+00
 -1         6 0.00000E+00 0.00000E+00 0.00000E+00
 -1         7 0.00000E+00 0.00000E+00 0.00000E+00
 -1         8 0.00000E+00 0.00000E+00 0.00000E+00
 -1        21 0.00000E+00 0.00000E+00 0.00000E+00
 -1        22 0.00000E+00 0.00000E+00 0.00000E+00
 -1        23 0.00000E+00 0.00000E+00 0.00000E+00
 -1        24 0.00000E+00 0.00000E+00 0.00000E+00
 -1        25 0.00000E+00 0.00000E+00 0.00000E+00
 -1        26 0.00000E+00 0.00000E+00 0.00000E+00
 -1        27 0.00000E+00 0.00000E+00 0.00000E+00
 -1        28 0.00000E+00 0.00000E+00 0.00000E+00
 -1        29 0.00000E+00 0.00000E+00 0.00000E+00
 -1        30 0.00000E+00 0.00000E+00 0.00000E+00
 -1        31 0.00000E+00 0.00000E+00 0.00000E+00
 -1        32 0.00000E+00 0.00000E+00 0.00000E+00
 -1        44 1.23812E-02-1.27269E-01 1.85126E-02
 -1        45 2.88896E-03-9.88720E-02 2.99097E-02
 -1        46-3.36893E-03-7.25358E-02 3.42268E-02
 -1        47 4.23495E-03-2.93663E-02 2.25235E-02
 -1        48-4.23380E-03-2.93667E-02 2.25219E-02
 -1        49 3.37017E-03-7.25374E-02 3.42257E-02
 -1        50-2.88009E-03-9.88742E-02 2.99084E-02
 -1        51-1.23738E-02-1.27270E-01 1.85110E-02
 -1        74-1.19801E-02-1.27451E-01-1.85237E-02
 -1        75-2.70100E-03-9.90144E-02-2.99243E-02
 -1        76 3.25887E-03-7.24594E-02-3.42378E-02
 -1        77-4.29259E-03-2.93317E-02-2.25238E-02
 -1        89 1.19934E-02-1.27449E-01-1.85256E-02
 -1        90 2.70474E-03-9.90151E-02-2.99250E-02
 -1        91-3.25848E-03-7.24598E-02-3.42381E-02
 -1        92 4.29240E-03-2.93330E-02-2.25251E-02
 -1        98 0.00000E+00 0.00000E+00 0.00000E+00
 -1        99 0.00000E+00 0.00000E+00 0.00000E+00
 -1       100 0.00000E+00 0.00000E+00 0.00000E+00
 -1       101 0.00000E+00 0.00000E+00 0.00000E+00
 -1       102 0.00000E+00 0.00000E+00 0.00000E+00
 -1       124-4.52469E-04-1.17304E-01 1.74371E-02
 -1       125 1.02397E-05-1.40128E-01 1.83168E-02
 -1       126 4.68998E-04-1.17300E-01 1.74399E-02
 -1       127 1.61515E-06-1.03238E-01 3.30583E-02
 -1       128 2.89785E-04-7.60022E-02 3.67440E-02
 -1       129 3.51670E-06-7.04390E-02 3.74604E-02
 -1       130-2.86286E-04-7.60024E-02 3.67438E-02
 -1       131 2.22378E-07-2.97369E-02 2.18680E-02
 -1       153-1.01598E-02-1.52265E-01 8.21645E-03
 -1       154 1.32872E-04-1.34869E-01-9.76472E-06
 -1       155 1.00026E-02-1.52260E-01-8.22759E-03
 -1       156 3.55111E-05-1.11521E-01-2.06130E-05
 -1       157 2.04579E-03-6.28758E-02 1.47309E-02
 -1       158-2.42653E-05-6.42179E-02-5.36905E-06
 -1       159-2.00496E-03-6.28636E-02-1.47318E-02
 -1       160-9.98168E-06-2.43895E-02-2.28119E-06
 -1       182-3.69871E-04-1.17282E-01-1.74533E-02
 -1       183 7.51255E-06-1.40090E-01-1.83282E-02
 -1       184 3.85022E-04-1.17277E-01-1.74534E-02
 -1       185 1.35897E-06-1.03162E-01-3.30297E-02
 -1       186 2.62224E-04-7.60142E-02-3.67487E-02
 -1       187 1.11032E-06-7.04998E-02-3.74482E-02
 -1       188-2.61184E-04-7.60155E-02-3.67490E-02
 -1       189-2.38153E-07-2.97630E-02-2.18698E-02
 -1       211-1.00003E-02-1.52257E-01-8.22910E-03
 -1       212-1.23199E-04-1.34874E-01-8.33640E-06
 -1       213 1.01626E-02-1.52273E-01 8.21602E-03
 -1       214-2.80159E-05-1.11523E-01-2.27637E-05
 -1       215 2.00728E-03-6.28655E-02-1.47332E-02
 -1       216 2.40431E-05-6.42192E-02-8.01548E-06
 -1       217-2.04386E-03-6.28762E-02 1.47287E-02
 -1       218 9.67736E-06-2.43898E-02-2.92761E-06
 -1       250 4.96169E-06-1.51165E-01 8.16367E-03
 -1       251-5.95208E-05-9.56890E-02-6.46330E-06
 -1       252-1.62998E-06-1.22237E-01-6.90558E-06
 -1       253 5.99049E-05-9.56888E-02-6.17508E-06
 -1       254 2.04374E-06-1.51175E-01-8.17908E-03
 -1       255 2.10321E-06-1.09160E-01-3.40854E-06
 -1       256 1.74440E-06-6.20215E-02 1.64445E-02
 -1       257 1.17815E-05-7.24947E-02-3.05944E-06
 -1       258 3.25029E-07-6.42294E-02-3.17846E-06
 -1       259-1.09588E-05-7.24935E-02-1.78008E-06
 -1       260 8.88906E-07-6.20454E-02-1.64510E-02
 -1       261 5.47165E-07-2.75860E-02 9.96947E-07
 -3
    1PSTEP                         4           4           1          
  100CL  104 2.00000E-02          81                     1    4           1
 -4  DISP        4    1
 -5  D1          1    2    1    0
 -5  D2          1    2    2    0
 -5  D3          1    2    3    0
 -5  ALL         1    2    0    0    1ALL
 -1         5 0.00000E+00 0.00000E+00 0.00000E+00
 -1         6 0.00000E+00 0.00000E+00 0.00000E+00
 -1         7 0.00000E+00 0.00000E+00 0.00000E+00
 -1         8 0.00000E+00 0.00000E+00 0.00000E+00
 -1        21 0.00000E+00 0.00000E+00 0.00000E+00
 -1        22 0.00000E+00 0.00000E+00 0.00000E+00
 -1        23 0.00000E+00 0.00000E+00 0.00000E+00
 -1        24 0.00000E+00 0.00000E+00 0.00000E+00
 -1        25 0.00000E+00 0.00000E+00 0.00000E+00
 -1        26 0.00000E+00 0.00000E+00 0.00000E+00
 -1        27 0.00000E+00 0.00000E+00 0.00000E+00
 -1        28 0.00000E+00 0.00000E+00 0.00000E+00
 -1        29 0.00000E+00 0.00000E+00 0.00000E+00
 -1        30 0.00000E+00 0.00000E+00 0.00000E+00
 -1        31 0.00000E+00 0.00000E+00 0.00000E+00
 -1        32 0.00000E+00 0.00000E+00 0.00000E+00
 -1        44-9.68943E-03 9.87530E-02-1.43274E-02
 -1        45-2.23653E-03 7.67612E-02-2.31984E-02
 -1        46 2.61306E-03 5.62805E-02-2.65514E-02
 -1        47-3.28132E-03 2.27934E-02-1.74841E-02
 -1        48 3.28077E-03 2.27935E-02-1.74830E-02
 -1        49-2.61339E-03 5.62813E-02-2.65501E-02
 -1        50 2.23179E-03 7.67611E-02-2.31979E-02
 -1        51 9.68745E-03 9.87517E-02-1.43293E-02
 -1        74 9.74852E-03 9.84897E-02 1.43391E-02
 -1        75 2.30413E-03 7.66506E-02 2.32088E-02
 -1        76-2.66043E-03 5.63583E-02 2.65633E-02
 -1        77 3.26446E-03 2.28324E-02 1.74859E-02
 -1        89-9.75435E-03 9.84879E-02 1.43373E-02
 -1        90-2.30674E-03 7.66511E-02 2.32090E-02
 -1        91 2.65959E-03 5.63574E-02 2.65630E-02
 -1        92-3.26457E-03 2.28331E-02 1.74864E-02
 -1        98 0.00000E+00 0.00000E+00 0.00000E+00
 -1        99 0.00000E+00 0.00000E+00 0.00000E+00
 -1       100 0.00000E+00 0.00000E+00 0.00000E+00
 -1       101 0.00000E+00 0.00000E+00 0.00000E+00
 -1       102 0.00000E+00 0.00000E+00 0.00000E+00
 -1       124 4.18570E-04 9.09626E-02-1.34886E-02
 -1       125-4.25089E-06 1.08795E-01-1.41694E-02
 -1       126-4.26162E-04 9.09603E-02-1.34902E-02
 -1       127-3.62144E-07 8.01251E-02-2.56337E-02
 -1       128-2.30336E-04 5.90060E-02-2.85202E-02
 -1       129-1.89915E-06 5.46790E-02-2.90808E-02
 -1       130 2.28845E-04 5.90063E-02-2.85201E-02
 -1       131-2.45063E-07 2.30748E-02-1.69662E-02
 -1       153 7.95055E-03 1.18187E-01-6.35709E-03
 -1       154-4.10834E-05 1.04769E-01 6.47796E-06
 -1       155-7.94237E-03 1.18148E-01 6.37464E-03
 -1       156-4.37006E-05 8.65374E-02-5.04502E-06
 -1       157-1.59978E-03 4.88163E-02-1.14277E-02
 -1       158 2.68621E-05 4.98755E-02-4.81969E-06
 -1       159 1.59681E-03 4.88326E-02 1.14297E-02
 -1       160 1.02621E-05 1.89297E-02 2.59645E-08
 -1       182 3.66519E-04 9.10928E-02 1.35070E-02
 -1       183-2.23802E-06 1.08599E-01 1.41852E-02
 -1       184-3.72764E-04 9.10884E-02 1.35052E-02
 -1       185-1.14490E-06 8.00666E-02 2.56588E-02
 -1       186-2.32625E-04 5.89815E-02 2.85216E-02
 -1       187-7.73791E-07 5.47290E-02 2.90870E-02
 -1       188 2.31683E-04 5.89819E-02 2.85216E-02
 -1       189-1.79018E-07 2.30974E-02 1.69711E-02
 -1       211 7.94412E-03 1.18146E-01 6.37182E-03
 -1       212 3.73719E-05 1.04772E-01 4.75273E-06
 -1       213-7.94852E-03 1.18189E-01-6.35673E-03
 -1       214 3.74069E-05 8.65382E-02-4.65948E-06
 -1       215-1.59811E-03 4.88328E-02 1.14307E-02
 -1       216-2.54034E-05 4.98759E-02-3.37448E-06
 -1       217 1.59909E-03 4.88165E-02-1.14266E-02
 -1       218-1.01544E-05 1.89296E-02 9.40461E-07
 -1       250-3.36362E-06 1.17317E-01-6.31224E-03
 -1       251-5.52136E-06 7.42020E-02 5.87487E-06
 -1       252-1.31350E-06 9.46789E-02 1.19465E-05
 -1       253 4.64502E-06 7.42019E-02 3.80567E-06
 -1       254-1.66327E-06 1.17205E-01 6.31879E-03
 -1       255-5.67199E-07 8.47265E-02 4.15866E-06
 -1       256-1.35040E-06 4.81185E-02-1.27661E-02
 -1       257-7.55101E-06 5.62780E-02 3.42543E-06
 -1       258-1.12809E-06 4.98399E-02 1.63756E-06
 -1       259 6.57895E-06 5.62774E-02 3.24730E-06
 -1       260-9.54987E-07 4.81479E-02 1.27712E-02
 -1       261-2.23948E-07 2.14230E-02-1.77214E-06
 -3
    1PSTEP                         5           5           1          
  100CL  105 2.50000E-02          81                     1    5           1
 -4  DISP        4    1
 -5  D1          1    2    1    0
 -5  D2          1    2    2    0
 -5  D3          1    2    3    0
 -5  ALL         1    2    0    0    1ALL
 -1         5 0.00000E+00 0.00000E+00 0.00000E+00
 -1         6 0.00000E+00 0.00000E+00 0.00000E+00
 -1         7 0.00000E+00 0.00000E+00 0.00000E+00
 -1         8 0.00000E+00 0.00000E+00 0.00000E+00
 -1        21 0.00000E+00 0.00000E+00 0.00000E+00
 -1        22 0.00000E+00 0.00000E+00 0.00000E+00
 -1        23 0.00000E+00 0.00000E+00 0.00000E+00
 -1        24 0.00000E+00 0.00000E+00 0.00000E+00
 -1        25 0.00000E+00 0.00000E+00 0.00000E+00
 -1        26 0.00000E+00 0.00000E+00 0.00000E+00
 -1        27 0.00000E+00 0.00000E+00 0.00000E+00
 -1        28 0.00000E+00 0.00000E+00 0.00000E+00
 -1        29 0.00000E+00 0.00000E+00 0.00000E+00
 -1        30 0.00000E+00 0.00000E+00 0.00000E+00
 -1        31 0.00000E+00 0.00000E+00 0.00000E+00
 -1        32 0.00000E+00 0.00000E+00 0.00000E+00
 -1        44 7.41422E-03-7.44583E-02 1.07796E-02
 -1        45 1.73768E-03-5.78747E-02 1.75274E-02
 -1        46-2.01109E-03-4.25669E-02 2.00555E-02
 -1        47 2.46097E-03-1.72303E-02 1.32005E-02
 -1        48-2.46025E-03-1.72299E-02 1.31976E-02
 -1        49 2.01097E-03-4.25665E-02 2.00530E-02
 -1        50-1.72431E-03-5.78792E-02 1.75272E-02
 -1        51-7.39499E-03-7.44719E-02 1.07748E-02
 -1        74-7.05863E-03-7.46812E-02-1.07795E-02
 -1        75-1.55951E-03-5.80238E-02-1.75331E-02
 -1        76 1.90801E-03-4.24798E-02-2.00586E-02
 -1        77-2.51185E-03-1.71915E-02-1.31986E-02
 -1        89 7.08170E-03-7.46661E-02-1.07834E-02
 -1        90 1.56972E-03-5.80211E-02-1.75328E-02
 -1        91-1.90897E-03-4.24816E-02-2.00605E-02
 -1        92 2.51178E-03-1.71931E-02-1.32013E-02
 -1        98 0.00000E+00 0.00000E+00 0.00000E+00
 -1        99 0.00000E+00 0.00000E+00 0.00000E+00
 -1       100 0.00000E+00 0.00000E+00 0.00000E+00
 -1       101 0.00000E+00 0.00000E+00 0.00000E+00
 -1       102 0.00000E+00 0.00000E+00 0.00000E+00
 -1       124-2.85636E-04-6.87001E-02 1.01361E-02
 -1       125 1.61893E-05-8.20821E-02 1.06719E-02
 -1       126 3.10124E-04-6.86970E-02 1.01412E-02
 -1       127 2.11313E-06-6.05166E-02 1.93624E-02
 -1       128 1.78998E-04-4.45605E-02 2.15454E-02
 -1       129 4.38948E-06-4.12790E-02 2.19718E-02
 -1       130-1.74346E-04-4.45600E-02 2.15457E-02
 -1       131-2.10352E-07-1.74165E-02 1.28081E-02
 -1       153-6.04322E-03-8.93931E-02 4.77976E-03
 -1       154 9.75776E-05-7.91936E-02-7.27626E-06
 -1       155 5.92362E-03-8.93930E-02-4.77965E-03
 -1       156 1.71100E-05-6.53754E-02-1.68170E-05
 -1       157 1.22435E-03-3.68470E-02 8.62622E-03
 -1       158-1.07965E-05-3.76468E-02-4.82947E-06
 -1       159-1.19086E-03-3.68328E-02-8.62474E-03
 -1       160-5.06756E-06-1.42834E-02-1.92962E-06
 -1       182-2.39179E-04-6.86430E-02-1.01409E-02
 -1       183 1.52664E-05-8.20965E-02-1.06727E-02
 -1       184 2.63795E-04-6.86386E-02-1.01430E-02
 -1       185 1.97742E-06-6.04686E-02-1.93311E-02
 -1       186 1.57684E-04-4.45735E-02-2.15478E-02
 -1       187 2.91200E-06-4.13122E-02-2.19586E-02
 -1       188-1.54719E-04-4.45738E-02-2.15485E-02
 -1       189-5.26137E-07-1.74308E-02-1.28076E-02
 -1       211-5.91769E-03-8.93801E-02-4.78374E-03
 -1       212-8.92906E-05-7.91970E-02 1.27817E-06
 -1       213 6.04969E-03-8.94089E-02 4.77642E-03
 -1       214-1.08911E-05-6.53765E-02-2.01360E-05
 -1       215 1.19406E-03-3.68357E-02-8.62651E-03
 -1       216 1.36958E-05-3.76476E-02-9.06825E-06
 -1       217-1.22133E-03-3.68457E-02 8.62374E-03
 -1       218 5.34677E-06-1.42836E-02-2.59706E-06
 -1       250 5.87126E-06-8.85435E-02 4.74825E-03
 -1       251-5.48933E-05-5.59141E-02-1.68954E-06
 -1       252-6.84749E-06-7.15368E-02-7.05668E-07
 -1       253 5.23349E-05-5.59142E-02-6.29654E-06
 -1       254 4.32042E-06-8.85846E-02-4.75363E-03
 -1       255 3.28896E-06-6.40381E-02-1.10901E-06
 -1       256 1.75730E-06-3.63120E-02 9.64302E-03
 -1       257 8.53863E-06-4.25080E-02-1.74946E-06
 -1       258-3.18997E-07-3.75833E-02-1.99605E-06
 -1       259-7.62968E-06-4.25072E-02 6.08830E-07
 -1       260 1.27323E-06-3.63206E-02-9.64644E-03
 -1       261 1.09906E-06-1.61599E-02 1.99047E-07
 -3
    1PSTEP                         6           6           1          
  100CL  106 3.00000E-02          81                     1    6           1
 -4  DISP        4    1
 -5  D1          1    2    1    0
 -5  D2          1    2    2    0
 -5  D3          1    2    3    0
 -5  ALL         1    2    0    0    1ALL
 -1         5 0.00000E+00 0.00000E+00 0.00000E+00
 -1         6 0.00000E+00 0.00000E+00 0.00000E+00
 -1         7 0.00000E+00 0.00000E+00 0.00000E+00
 -1         8 0.00000E+00 0.00000E+00 0.00000E+00
 -1        21 0.00000E+00 0.00000E+00 0.00000E+00
 -1        22 0.00000E+00 0.00000E+00 0.00000E+00
 -1        23 0.00000E+00 0.00000E+00 0.00000E+00
 -1        24 0.00000E+00 0.00000E+00 0.00000E+00
 -1        25 0.00000E+00 0.00000E+00 0.00000E+00
 -1        26 0.00000E+00 0.00000E+00 0.00000E+00
 -1        27 0.00000E+00 0.00000E+00 0.00000E+00
 -1        28 0.00000E+00 0.00000E+00 0.00000E+00
 -1        29 0.00000E+00 0.00000E+00 0.00000E+00
 -1        30 0.00000E+00 0.00000E+00 0.00000E+00
 -1        31 0.00000E+00 0.00000E+00 0.00000E+00
 -1        32 0.00000E+00 0.00000E+00 0.00000E+00
 -1        44-5.33859E-03 5.40436E-02-7.75324E-03
 -1        45-1.22788E-03 4.20198E-02-1.26905E-02
 -1        46 1.43958E-03 3.08334E-02-1.45466E-02
 -1        47-1.79019E-03 1.24771E-02-9.56948E-03