    1C
    1UUSER                                                              
    1UDATE              18.july.2018                                    
    1UTIME              00:10:56                                        
    1UHOST                                                              
    1UPGM               CalculiX                                        
    1UVERSION           Version 2.13                             
    1UCOMPILETIME       jue jun 14 00:40:39 CEST 2018                    
    1UDIR                                                               
    1UDBN                                                               
    1UMAT    1EL                                                        
    2C                           201                                     1
 -1         1 0.00000E+00 0.00000E+00 0.00000E+00
 -1         2 1.00000E+00 0.00000E+00 0.00000E+00
 -1         3 1.00000E+00 1.00000E+00 0.00000E+00
 -1         4 0.00000E+00 1.00000E+00 0.00000E+00
 -1         9 2.50000E-01 0.00000E+00 0.00000E+00
 -1        10 5.00000E-01 0.00000E+00 0.00000E+00
 -1        11 7.50000E-01 0.00000E+00 0.00000E+00
 -1        12 1.00000E+00 2.50000E-01 0.00000E+00
 -1        13 1.00000E+00 5.00000E-01 0.00000E+00
 -1        14 1.00000E+00 7.50000E-01 0.00000E+00
 -1        15 7.50000E-01 1.00000E+00 0.00000E+00
 -1        16 5.00000E-01 1.00000E+00 0.00000E+00
 -1        17 2.50000E-01 1.00000E+00 0.00000E+00
 -1        18 0.00000E+00 7.50000E-01 0.00000E+00
 -1        19 0.00000E+00 5.00000E-01 0.00000E+00
 -1        20 0.00000E+00 2.50000E-01 0.00000E+00
 -1        33 1.00000E+00 0.00000E+00 5.00000E-01
 -1        34 1.00000E+00 0.00000E+00 1.00000E+00
 -1        35 1.00000E+00 0.00000E+00 1.50000E+00
 -1        36 1.00000E+00 0.00000E+00 2.00000E+00
 -1        37 1.00000E+00 0.00000E+00 2.50000E+00
 -1        38 1.00000E+00 0.00000E+00 3.00000E+00
 -1        39 1.00000E+00 0.00000E+00 3.50000E+00
 -1        40 1.00000E+00 0.00000E+00 4.00000E+00
 -1        41 1.00000E+00 0.00000E+00 4.50000E+00
 -1        42 1.00000E+00 0.00000E+00 5.00000E+00
 -1        43 1.00000E+00 0.00000E+00 5.50000E+00
 -1        44 1.00000E+00 0.00000E+00 6.00000E+00
 -1        51 0.00000E+00 0.00000E+00 6.00000E+00
 -1        52 0.00000E+00 0.00000E+00 5.50000E+00
 -1        53 0.00000E+00 0.00000E+00 5.00000E+00
 -1        54 0.00000E+00 0.00000E+00 4.50000E+00
 -1        55 0.00000E+00 0.00000E+00 4.00000E+00
 -1        56 0.00000E+00 0.00000E+00 3.50000E+00
 -1        57 0.00000E+00 0.00000E+00 3.00000E+00
 -1        58 0.00000E+00 0.00000E+00 2.50000E+00
 -1        59 0.00000E+00 0.00000E+00 2.00000E+00
 -1        60 0.00000E+00 0.00000E+00 1.50000E+00
 -1        61 0.00000E+00 0.00000E+00 1.00000E+00
 -1        62 0.00000E+00 0.00000E+00 5.00000E-01
 -1        63 1.00000E+00 1.00000E+00 5.00000E-01
 -1        64 1.00000E+00 1.00000E+00 1.00000E+00
 -1        65 1.00000E+00 1.00000E+00 1.50000E+00
 -1        66 1.00000E+00 1.00000E+00 2.00000E+00
 -1        67 1.00000E+00 1.00000E+00 2.50000E+00
 -1        68 1.00000E+00 1.00000E+00 3.00000E+00
 -1        69 1.00000E+00 1.00000E+00 3.50000E+00
 -1        70 1.00000E+00 1.00000E+00 4.00000E+00
 -1        71 1.00000E+00 1.00000E+00 4.50000E+00
 -1        72 1.00000E+00 1.00000E+00 5.00000E+00
 -1        73 1.00000E+00 1.00000E+00 5.50000E+00
 -1        74 1.00000E+00 1.00000E+00 6.00000E+00
 -1        78 0.00000E+00 1.00000E+00 5.00000E-01
 -1        79 0.00000E+00 1.00000E+00 1.00000E+00
 -1        80 0.00000E+00 1.00000E+00 1.50000E+00
 -1        81 0.00000E+00 1.00000E+00 2.00000E+00
 -1        82 0.00000E+00 1.00000E+00 2.50000E+00
 -1        83 0.00000E+00 1.00000E+00 3.00000E+00
 -1        84 0.00000E+00 1.00000E+00 3.50000E+00
 -1        85 0.00000E+00 1.00000E+00 4.00000E+00
 -1        86 0.00000E+00 1.00000E+00 4.50000E+00
 -1        87 0.00000E+00 1.00000E+00 5.00000E+00
 -1        88 0.00000E+00 1.00000E+00 5.50000E+00
 -1        89 0.00000E+00 1.00000E+00 6.00000E+00
 -1        93 5.00000E-01 2.50000E-01 0.00000E+00
 -1        94 2.50000E-01 5.00000E-01 0.00000E+00
 -1        95 5.00000E-01 5.00000E-01 0.00000E+00
 -1        96 7.50000E-01 5.00000E-01 0.00000E+00
 -1        97 5.00000E-01 7.50000E-01 0.00000E+00
 -1       103 5.00000E-01 0.00000E+00 5.00000E-01
 -1       104 2.50000E-01 0.00000E+00 1.00000E+00
 -1       105 5.00000E-01 0.00000E+00 1.00000E+00
 -1       106 7.50000E-01 0.00000E+00 1.00000E+00
 -1       107 5.00000E-01 0.00000E+00 1.50000E+00
 -1       108 2.50000E-01 0.00000E+00 2.00000E+00
 -1       109 5.00000E-01 0.00000E+00 2.00000E+00
 -1       110 7.50000E-01 0.00000E+00 2.00000E+00
 -1       111 5.00000E-01 0.00000E+00 2.50000E+00
 -1       112 2.50000E-01 0.00000E+00 3.00000E+00
 -1       113 5.00000E-01 0.00000E+00 3.00000E+00
 -1       114 7.50000E-01 0.00000E+00 3.00000E+00
 -1       115 5.00000E-01 0.00000E+00 3.50000E+00
 -1       116 2.50000E-01 0.00000E+00 4.00000E+00
 -1       117 5.00000E-01 0.00000E+00 4.00000E+00
 -1       118 7.50000E-01 0.00000E+00 4.00000E+00
 -1       119 5.00000E-01 0.00000E+00 4.50000E+00
 -1       120 2.50000E-01 0.00000E+00 5.00000E+00
 -1       121 5.00000E-01 0.00000E+00 5.00000E+00
 -1       122 7.50000E-01 0.00000E+00 5.00000E+00
 -1       123 5.00000E-01 0.00000E+00 5.50000E+00
 -1       124 2.50000E-01 0.00000E+00 6.00000E+00
 -1       125 5.00000E-01 0.00000E+00 6.00000E+00
 -1       126 7.50000E-01 0.00000E+00 6.00000E+00
 -1       132 1.00000E+00 5.00000E-01 5.00000E-01
 -1       133 1.00000E+00 2.50000E-01 1.00000E+00
 -1       134 1.00000E+00 5.00000E-01 1.00000E+00
 -1       135 1.00000E+00 7.50000E-01 1.00000E+00
 -1       136 1.00000E+00 5.00000E-01 1.50000E+00
 -1       137 1.00000E+00 2.50000E-01 2.00000E+00
 -1       138 1.00000E+00 5.00000E-01 2.00000E+00
 -1       139 1.00000E+00 7.50000E-01 2.00000E+00
 -1       140 1.00000E+00 5.00000E-01 2.50000E+00
 -1       141 1.00000E+00 2.50000E-01 3.00000E+00
 -1       142 1.00000E+00 5.00000E-01 3.00000E+00
 -1       143 1.00000E+00 7.50000E-01 3.00000E+00
 -1       144 1.00000E+00 5.00000E-01 3.50000E+00
 -1       145 1.00000E+00 2.50000E-01 4.00000E+00
 -1       146 1.00000E+00 5.00000E-01 4.00000E+00
 -1       147 1.00000E+00 7.50000E-01 4.00000E+00
 -1       148 1.00000E+00 5.00000E-01 4.50000E+00
 -1       149 1.00000E+00 2.50000E-01 5.00000E+00
 -1       150 1.00000E+00 5.00000E-01 5.00000E+00
 -1       151 1.00000E+00 7.50000E-01 5.00000E+00
 -1       152 1.00000E+00 5.00000E-01 5.50000E+00
 -1       153 1.00000E+00 2.50000E-01 6.00000E+00
 -1       154 1.00000E+00 5.00000E-01 6.00000E+00
 -1       155 1.00000E+00 7.50000E-01 6.00000E+00
 -1       161 5.00000E-01 1.00000E+00 5.00000E-01
 -1       162 7.50000E-01 1.00000E+00 1.00000E+00
 -1       163 5.00000E-01 1.00000E+00 1.00000E+00
 -1       164 2.50000E-01 1.00000E+00 1.00000E+00
 -1       165 5.00000E-01 1.00000E+00 1.50000E+00
 -1       166 7.50000E-01 1.00000E+00 2.00000E+00
 -1       167 5.00000E-01 1.00000E+00 2.00000E+00
 -1       168 2.50000E-01 1.00000E+00 2.00000E+00
 -1       169 5.00000E-01 1.00000E+00 2.50000E+00
 -1       170 7.50000E-01 1.00000E+00 3.00000E+00
 -1       171 5.00000E-01 1.00000E+00 3.00000E+00
 -1       172 2.50000E-01 1.00000E+00 3.00000E+00
 -1       173 5.00000E-01 1.00000E+00 3.50000E+00
 -1       174 7.50000E-01 1.00000E+00 4.00000E+00
 -1       175 5.00000E-01 1.00000E+00 4.00000E+00
 -1       176 2.50000E-01 1.00000E+00 4.00000E+00
 -1       177 5.00000E-01 1.00000E+00 4.50000E+00
 -1       178 7.50000E-01 1.00000E+00 5.00000E+00
 -1       179 5.00000E-01 1.00000E+00 5.00000E+00
 -1       180 2.50000E-01 1.00000E+00 5.00000E+00
 -1       181 5.00000E-01 1.00000E+00 5.50000E+00
 -1       182 7.50000E-01 1.00000E+00 6.00000E+00
 -1       183 5.00000E-01 1.00000E+00 6.00000E+00
 -1       184 2.50000E-01 1.00000E+00 6.00000E+00
 -1       190 0.00000E+00 5.00000E-01 5.00000E-01
 -1       191 0.00000E+00 7.50000E-01 1.00000E+00
 -1       192 0.00000E+00 5.00000E-01 1.00000E+00
 -1       193 0.00000E+00 2.50000E-01 1.00000E+00
 -1       194 0.00000E+00 5.00000E-01 1.50000E+00
 -1       195 0.00000E+00 7.50000E-01 2.00000E+00
 -1       196 0.00000E+00 5.00000E-01 2.00000E+00
 -1       197 0.00000E+00 2.50000E-01 2.00000E+00
 -1       198 0.00000E+00 5.00000E-01 2.50000E+00
 -1       199 0.00000E+00 7.50000E-01 3.00000E+00
 -1       200 0.00000E+00 5.00000E-01 3.00000E+00
 -1       201 0.00000E+00 2.50000E-01 3.00000E+00
 -1       202 0.00000E+00 5.00000E-01 3.50000E+00
 -1       203 0.00000E+00 7.50000E-01 4.00000E+00
 -1       204 0.00000E+00 5.00000E-01 4.00000E+00
 -1       205 0.00000E+00 2.50000E-01 4.00000E+00
 -1       206 0.00000E+00 5.00000E-01 4.50000E+00
 -1       207 0.00000E+00 7.50000E-01 5.00000E+00
 -1       208 0.00000E+00 5.00000E-01 5.00000E+00
 -1       209 0.00000E+00 2.50000E-01 5.00000E+00
 -1       210 0.00000E+00 5.00000E-01 5.50000E+00
 -1       211 0.00000E+00 7.50000E-01 6.00000E+00
 -1       212 0.00000E+00 5.00000E-01 6.00000E+00
 -1       213 0.00000E+00 2.50000E-01 6.00000E+00
 -1       219 5.00000E-01 5.00000E-01 5.00000E-01
 -1       220 5.00000E-01 2.50000E-01 1.00000E+00
 -1       221 2.50000E-01 5.00000E-01 1.00000E+00
 -1       222 5.00000E-01 5.00000E-01 1.00000E+00
 -1       223 7.50000E-01 5.00000E-01 1.00000E+00
 -1       224 5.00000E-01 7.50000E-01 1.00000E+00
 -1       225 5.00000E-01 5.00000E-01 1.50000E+00
 -1       226 5.00000E-01 2.50000E-01 2.00000E+00
 -1       227 2.50000E-01 5.00000E-01 2.00000E+00
 -1       228 5.00000E-01 5.00000E-01 2.00000E+00
 -1       229 7.50000E-01 5.00000E-01 2.00000E+00
 -1       230 5.00000E-01 7.50000E-01 2.00000E+00
 -1       231 5.00000E-01 5.00000E-01 2.50000E+00
 -1       232 5.00000E-01 2.50000E-01 3.00000E+00
 -1       233 2.50000E-01 5.00000E-01 3.00000E+00
 -1       234 5.00000E-01 5.00000E-01 3.00000E+00
 -1       235 7.50000E-01 5.00000E-01 3.00000E+00
 -1       236 5.00000E-01 7.50000E-01 3.00000E+00
 -1       237 5.00000E-01 5.00000E-01 3.50000E+00
 -1       238 5.00000E-01 2.50000E-01 4.00000E+00
 -1       239 2.50000E-01 5.00000E-01 4.00000E+00
 -1       240 5.00000E-01 5.00000E-01 4.00000E+00
 -1       241 7.50000E-01 5.00000E-01 4.00000E+00
 -1       242 5.00000E-01 7.50000E-01 4.00000E+00
 -1       243 5.00000E-01 5.00000E-01 4.50000E+00
 -1       244 5.00000E-01 2.50000E-01 5.00000E+00
 -1       245 2.50000E-01 5.00000E-01 5.00000E+00
 -1       246 5.00000E-01 5.00000E-01 5.00000E+00
 -1       247 7.50000E-01 5.00000E-01 5.00000E+00
 -1       248 5.00000E-01 7.50000E-01 5.00000E+00
 -1       249 5.00000E-01 5.00000E-01 5.50000E+00
 -1       250 5.00000E-01 2.50000E-01 6.00000E+00
 -1       251 2.50000E-01 5.00000E-01 6.00000E+00
 -1       252 5.00000E-01 5.00000E-01 6.00000E+00
 -1       253 7.50000E-01 5.00000E-01 6.00000E+00
 -1       254 5.00000E-01 7.50000E-01 6.00000E+00
 -3
    3C                            24                                     1
 -1         1    4    0    1
 -2         1        10        95        19        61       105       222       192         9        93
 -2        94        20        62       103       219       190       104       220       221       193
 -1         2    4    0    1
 -2        10         2        13        95       105        34       134       222        11        12
 -2        96        93       103        33       132       219       106       133       223       220
 -1         3    4    0    1
 -2        19        95        16         4       192       222       163        79        94        97
 -2        17        18       190       219       161        78       221       224       164       191
 -1         4    4    0    1
 -2        95        13         3        16       222       134        64       163        96        14
 -2        15        97       219       132        63       161       223       135       162       224
 -1         5    4    0    1
 -2        61       105       222       192        59       109       228       196       104       220
 -2       221       193        60       107       225       194       108       226       227       197
 -1         6    4    0    1
 -2       105        34       134       222       109        36       138       228       106       133
 -2       223       220       107        35       136       225       110       137       229       226
 -1         7    4    0    1
 -2       192       222       163        79       196       228       167        81       221       224
 -2       164       191       194       225       165        80       227       230       168       195
 -1         8    4    0    1
 -2       222       134        64       163       228       138        66       167       223       135
 -2       162       224       225       136        65       165       229       139       166       230
 -1         9    4    0    1
 -2        59       109       228       196        57       113       234       200       108       226
 -2       227       197        58       111       231       198       112       232       233       201
 -1        10    4    0    1
 -2       109        36       138       228       113        38       142       234       110       137
 -2       229       226       111        37       140       231       114       141       235       232
 -1        11    4    0    1
 -2       196       228       167        81       200       234       171        83       227       230
 -2       168       195       198       231       169        82       233       236       172       199
 -1        12    4    0    1
 -2       228       138        66       167       234       142        68       171       229       139
 -2       166       230       231       140        67       169       235       143       170       236
 -1        13    4    0    1
 -2        57       113       234       200        55       117       240       204       112       232
 -2       233       201        56       115       237       202       116       238       239       205
 -1        14    4    0    1
 -2       113        38       142       234       117        40       146       240       114       141
 -2       235       232       115        39       144       237       118       145       241       238
 -1        15    4    0    1
 -2       200       234       171        83       204       240       175        85       233       236
 -2       172       199       202       237       173        84       239       242       176       203
 -1        16    4    0    1
 -2       234       142        68       171       240       146        70       175       235       143
 -2       170       236       237       144        69       173       241       147       174       242
 -1        17    4    0    1
 -2        55       117       240       204        53       121       246       208       116       238
 -2       239       205        54       119       243       206       120       244       245       209
 -1        18    4    0    1
 -2       117        40       146       240       121        42       150       246       118       145
 -2       241       238       119        41       148       243       122       149       247       244
 -1        19    4    0    1
 -2       204       240       175        85       208       246       179        87       239       242
 -2       176       203       206       243       177        86       245       248       180       207
 -1        20    4    0    1
 -2       240       146        70       175       246       150        72       179       241       147
 -2       174       242       243       148        71       177       247       151       178       248
 -1        21    4    0    1
 -2        53       121       246       208        51       125       252       212       120       244
 -2       245       209        52       123       249       210       124       250       251       213
 -1        22    4    0    1
 -2       121        42       150       246       125        44       154       252       122       149
 -2       247       244       123        43       152       249       126       153       253       250
 -1        23    4    0    1
 -2       208       246       179        87       212       252       183        89       245       248
 -2       180       207       210       249       181        88       251       254       184       211
 -1        24    4    0    1
 -2       246       150        72       179       252       154        74       183       247       151
 -2       178       248       249       152        73       181       253       155       182       254
 -3
    1PSTEP                         1           1           1          
  100CL  101 5.00000E-03         201                     1    1           1
 -4  DISP        4    1
 -5  D1          1    2    1    0
 -5  D2          1    2    2    0
 -5  D3          1    2    3    0
 -5  ALL         1    2    0    0    1ALL
 -1         1 0.00000E+00 0.00000E+00 0.00000E+00
 -1         2 0.00000E+00 0.00000E+00 0.00000E+00
 -1         3 0.00000E+00 0.00000E+00 0.00000E+00
 -1         4 0.00000E+00 0.00000E+00 0.00000E+00
 -1         9 0.00000E+00 0.00000E+00 0.00000E+00
 -1        10 0.00000E+00 0.00000E+00 0.00000E+00
 -1        11 0.00000E+00 0.00000E+00 0.00000E+00
 -1        12 0.00000E+00 0.00000E+00 0.00000E+00
 -1        13 0.00000E+00 0.00000E+00 0.00000E+00
 -1        14 0.00000E+00 0.00000E+00 0.00000E+00
 -1        15 0.00000E+00 0.00000E+00 0.00000E+00
 -1        16 0.00000E+00 0.00000E+00 0.00000E+00
 -1        17 0.00000E+00 0.00000E+00 0.00000E+00
 -1        18 0.00000E+00 0.00000E+00 0.00000E+00
 -1        19 0.00000E+00 0.00000E+00 0.00000E+00
 -1        20 0.00000E+00 0.00000E+00 0.00000E+00
 -1        33 6.38276E-05-1.55656E-04-2.04509E-04
 -1        34 3.13299E-05-4.81924E-04-3.74392E-04
 -1        35 2.57616E-05-9.70890E-04-4.83957E-04
 -1        36 8.14710E-06-1.52853E-03-5.41000E-04
 -1        37-5.17049E-06-2.11214E-03-5.47829E-04
 -1        38-2.11243E-05-2.69503E-03-5.19157E-04
 -1        39-4.25693E-05-3.19607E-03-3.84817E-04
 -1        40-4.31789E-05-3.54402E-03-2.09658E-04
 -1        41-4.42968E-05-3.58165E-03-6.38822E-05
 -1        42-6.14332E-05-3.74111E-03-1.48093E-04
 -1        43 6.20932E-05-3.47340E-03 8.56046E-05
 -1        44-6.04173E-05-3.46556E-03 4.48467E-04
 -1        51 6.04142E-05-3.46556E-03 4.48468E-04
 -1        52-6.20962E-05-3.47340E-03 8.56056E-05
 -1        53 6.14289E-05-3.74111E-03-1.48093E-04
 -1        54 4.42930E-05-3.58165E-03-6.38821E-05
 -1        55 4.31749E-05-3.54402E-03-2.09659E-04
 -1        56 4.25659E-05-3.19607E-03-3.84817E-04
 -1        57 2.11213E-05-2.69503E-03-5.19157E-04
 -1        58 5.16818E-06-2.11214E-03-5.47829E-04
 -1        59-8.14880E-06-1.52853E-03-5.41001E-04
 -1        60-2.57627E-05-9.70890E-04-4.83957E-04
 -1        61-3.13305E-05-4.81924E-04-3.74393E-04
 -1        62-6.38277E-05-1.55656E-04-2.04509E-04
 -1        63-6.26544E-05-1.53927E-04 2.01083E-04
 -1        64-3.11703E-05-4.81365E-04 3.67041E-04
 -1        65-2.34216E-05-9.70426E-04 4.73665E-04
 -1        66-7.93142E-06-1.53502E-03 5.27304E-04
 -1        67 5.00651E-06-2.10240E-03 5.30940E-04
 -1        68 1.45956E-05-2.69555E-03 4.94019E-04
 -1        69 5.86548E-05-3.20672E-03 3.58220E-04
 -1        70 6.60055E-05-3.63533E-03 1.84578E-04
 -1        71-5.45723E-06-3.45948E-03 3.34349E-05
 -1        72-1.04511E-04-3.47831E-03 7.90932E-05
 -1        73 2.02636E-04-3.88876E-03-1.68768E-04
 -1        74 3.18529E-04-4.41223E-03-4.94657E-04
 -1        78 6.26542E-05-1.53926E-04 2.01083E-04
 -1        79 3.11697E-05-4.81365E-04 3.67040E-04
 -1        80 2.34205E-05-9.70426E-04 4.73664E-04
 -1        81 7.92970E-06-1.53502E-03 5.27303E-04
 -1        82-5.00888E-06-2.10240E-03 5.30939E-04
 -1        83-1.45986E-05-2.69555E-03 4.94018E-04
 -1        84-5.86583E-05-3.20672E-03 3.58220E-04
 -1        85-6.60094E-05-3.63533E-03 1.84578E-04
 -1        86 5.45326E-06-3.45948E-03 3.34349E-05
 -1        87 1.04507E-04-3.47831E-03 7.90932E-05
 -1        88-2.02639E-04-3.88876E-03-1.68768E-04
 -1        89-3.18532E-04-4.41223E-03-4.94656E-04
 -1        93 0.00000E+00 0.00000E+00 0.00000E+00
 -1        94 0.00000E+00 0.00000E+00 0.00000E+00
 -1        95 0.00000E+00 0.00000E+00 0.00000E+00
 -1        96 0.00000E+00 0.00000E+00 0.00000E+00
 -1        97 0.00000E+00 0.00000E+00 0.00000E+00
 -1       103-6.44803E-11-1.81937E-04-2.00717E-04
 -1       104-1.56248E-05-5.01351E-04-3.80307E-04
 -1       105-2.56642E-10-5.03876E-04-3.82950E-04
 -1       106 1.56243E-05-5.01351E-04-3.80307E-04
 -1       107-5.27523E-10-9.80985E-04-4.86680E-04
 -1       108-3.29737E-06-1.53072E-03-5.44706E-04
 -1       109-8.27214E-10-1.54136E-03-5.43630E-04
 -1       110 3.29570E-06-1.53072E-03-5.44705E-04
 -1       111-1.17314E-09-2.10331E-03-5.51617E-04
 -1       112 7.49873E-06-2.71909E-03-5.21319E-04
 -1       113-1.43714E-09-2.71232E-03-5.22917E-04
 -1       114-7.50168E-06-2.71909E-03-5.21319E-04
 -1       115-1.75979E-09-3.15782E-03-3.93345E-04
 -1       116 3.31024E-05-3.52047E-03-2.04016E-04
 -1       117-1.82993E-09-3.64283E-03-1.83099E-04
 -1       118-3.31062E-05-3.52047E-03-2.04016E-04
 -1       119-2.05240E-09-3.55512E-03-6.57701E-05
 -1       120-7.13862E-06-3.91172E-03-1.12731E-04
 -1       121-1.64010E-09-3.76569E-03-1.17682E-04
 -1       122 7.13470E-06-3.91172E-03-1.12731E-04
 -1       123-1.88462E-09-3.48395E-03-2.55848E-05
 -1       124 1.49854E-04-2.96626E-03 4.29713E-04
 -1       125-5.52412E-10-3.58935E-03 4.48470E-04
 -1       126-1.49856E-04-2.96626E-03 4.29712E-04
 -1       132 7.16065E-07-1.18680E-04-1.59420E-06
 -1       133 1.61327E-05-4.69661E-04-1.78006E-04
 -1       134 8.89001E-07-4.74373E-04-2.86599E-06
 -1       135-1.53968E-05-4.69769E-04 1.71208E-04
 -1       136-1.65950E-07-9.53357E-04-5.56129E-06
 -1       137 4.80519E-06-1.52661E-03-2.68607E-04
 -1       138 5.13430E-07-1.51881E-03-7.33191E-06
 -1       139-3.66741E-06-1.52831E-03 2.55214E-04
 -1       140 1.69657E-06-2.12626E-03-9.15346E-06
 -1       141-1.04629E-05-2.68049E-03-2.44313E-04
 -1       142 5.53247E-06-2.68700E-03-5.07583E-06
 -1       143 1.13022E-05-2.68668E-03 2.24224E-04
 -1       144-8.89966E-06-3.22016E-03-1.26602E-05
 -1       145-2.03186E-05-3.56296E-03-1.32013E-04
 -1       146-1.29896E-05-3.46597E-03-2.47542E-05
 -1       147 1.81621E-05-3.58712E-03 1.00780E-04
 -1       148 2.70870E-05-3.68202E-03-2.36599E-05
 -1       149-3.28275E-05-3.42240E-03-4.68115E-05
 -1       150 8.52760E-05-3.44941E-03-1.89347E-06
 -1       151 2.83660E-05-3.35472E-03-9.70348E-09
 -1       152-1.26986E-04-3.72200E-03 1.16598E-05
 -1       153 6.99770E-05-3.63601E-03 1.91287E-04
 -1       154-1.20312E-04-2.50298E-03-2.09131E-05
 -1       155-6.51741E-05-3.88879E-03-2.37928E-04
 -1       161-7.07975E-11-1.80734E-04 1.96998E-04
 -1       162-1.53718E-05-5.00711E-04 3.73587E-04
 -1       163-2.70279E-10-5.01424E-04 3.75760E-04
 -1       164 1.53713E-05-5.00711E-04 3.73587E-04
 -1       165-5.40254E-10-9.81049E-04 4.76654E-04
 -1       166-3.94895E-06-1.52808E-03 5.30645E-04
 -1       167-8.53934E-10-1.53731E-03 5.32874E-04
 -1       168 3.94724E-06-1.52808E-03 5.30645E-04
 -1       169-1.19132E-09-2.10417E-03 5.30929E-04
 -1       170 7.51942E-06-2.71901E-03 5.01350E-04
 -1       171-1.48395E-09-2.68098E-03 4.96937E-04
 -1       172-7.52242E-06-2.71901E-03 5.01350E-04
 -1       173-1.77767E-09-3.17847E-03 3.69041E-04
 -1       174 3.14787E-05-3.46211E-03 1.71077E-04
 -1       175-1.90960E-09-3.56213E-03 1.72677E-04
 -1       176-3.14826E-05-3.46211E-03 1.71077E-04
 -1       177-2.06246E-09-3.51205E-03 2.08001E-05
 -1       178-4.47300E-05-4.00889E-03 7.15607E-05
 -1       179-1.82910E-09-3.57955E-03 4.82016E-05
 -1       180 4.47260E-05-4.00889E-03 7.15609E-05
 -1       181-1.79214E-09-3.68416E-03-6.06094E-05
 -1       182 1.14694E-04-2.56264E-03-4.71105E-04
 -1       183-9.36310E-10-4.35571E-03-4.76693E-04
 -1       184-1.14696E-04-2.56264E-03-4.71105E-04
 -1       190-7.16272E-07-1.18680E-04-1.59442E-06
 -1       191 1.53962E-05-4.69769E-04 1.71207E-04
 -1       192-8.89557E-07-4.74373E-04-2.86640E-06
 -1       193-1.61333E-05-4.69661E-04-1.78007E-04
 -1       194 1.64855E-07-9.53357E-04-5.56182E-06
 -1       195 3.66570E-06-1.52831E-03 2.55213E-04
 -1       196-5.15106E-07-1.51881E-03-7.33250E-06
 -1       197-4.80689E-06-1.52661E-03-2.68608E-04
 -1       198-1.69893E-06-2.12626E-03-9.15405E-06
 -1       199-1.13052E-05-2.68668E-03 2.24224E-04
 -1       200-5.53541E-06-2.68700E-03-5.07634E-06
 -1       201 1.04599E-05-2.68049E-03-2.44313E-04
 -1       202 8.89622E-06-3.22016E-03-1.26606E-05
 -1       203-1.81660E-05-3.58712E-03 1.00780E-04
 -1       204 1.29860E-05-3.46597E-03-2.47544E-05
 -1       205 2.03147E-05-3.56296E-03-1.32014E-04
 -1       206-2.70911E-05-3.68202E-03-2.36599E-05
 -1       207-2.83698E-05-3.35472E-03-9.40702E-09
 -1       208-8.52801E-05-3.44941E-03-1.89297E-06
 -1       209 3.28236E-05-3.42240E-03-4.68112E-05
 -1       210 1.26984E-04-3.72200E-03 1.16605E-05
 -1       211 6.51710E-05-3.88879E-03-2.37927E-04
 -1       212 1.20311E-04-2.50298E-03-2.09124E-05
 -1       213-6.99797E-05-3.63601E-03 1.91288E-04
 -1       219-8.04278E-11-1.44460E-04-1.42394E-06
 -1       220-2.71961E-10-4.89487E-04-1.83657E-04
 -1       221-4.14888E-07-4.91015E-04-3.62594E-06
 -1       222-2.78869E-10-4.92421E-04-3.79019E-06
 -1       223 4.14341E-07-4.91015E-04-3.62574E-06
 -1       224-2.78831E-10-4.88114E-04 1.76715E-04
 -1       225-5.35252E-10-9.65516E-04-5.11392E-06
 -1       226-8.41638E-10-1.53415E-03-2.72904E-04
 -1       227-3.65990E-07-1.52005E-03-6.84731E-06
 -1       228-8.57131E-10-1.52191E-03-8.43136E-06
 -1       229 3.64292E-07-1.52005E-03-6.84702E-06
 -1       230-8.55088E-10-1.53251E-03 2.57743E-04
 -1       231-1.16738E-09-2.12485E-03-7.45030E-06
 -1       232-1.46678E-09-2.68847E-03-2.49344E-04
 -1       233-2.22296E-06-2.68425E-03-1.26763E-05
 -1       234-1.49576E-09-2.68139E-03-1.39572E-05
 -1       235 2.22001E-06-2.68425E-03-1.26760E-05
 -1       236-1.48950E-09-2.67128E-03 2.27159E-04
 -1       237-1.72807E-09-3.19248E-03-9.31215E-06
 -1       238-1.87840E-09-3.61174E-03-1.24053E-04
 -1       239 5.76679E-06-3.45382E-03-1.43521E-05
 -1       240-1.95146E-09-3.47778E-03-2.00336E-05
 -1       241-5.77061E-06-3.45382E-03-1.43520E-05
 -1       242-1.92262E-09-3.57442E-03 8.84313E-05
 -1       243-1.95865E-09-3.65629E-03-2.12071E-05
 -1       244-1.85075E-09-3.52133E-03-2.04374E-05
 -1       245-3.37962E-05-3.61209E-03-2.61881E-05
 -1       246-2.01739E-09-3.65250E-03-1.97610E-05
 -1       247 3.37922E-05-3.61209E-03-2.61883E-05
 -1       248-1.91945E-09-3.43726E-03-1.00037E-05
 -1       249-1.63461E-09-3.52272E-03-1.33167E-05
 -1       250-8.89119E-10-4.08182E-03 1.74291E-04
 -1       251 3.02727E-05-2.57228E-03-1.04296E-05
 -1       252-1.43479E-09-3.12371E-03-1.58796E-05
 -1       253-3.02751E-05-2.57228E-03-1.04302E-05
 -1       254-1.20521E-09-4.41338E-03-2.54347E-04
 -3
    1PSTEP                         2           2           1          
  100CL  102 1.00000E-02         201                     1    2           1
 -4  DISP        4    1
 -5  D1          1    2    1    0
 -5  D2          1    2    2    0
 -5  D3          1    2    3    0
 -5  ALL         1    2    0    0    1ALL
 -1         1 0.00000E+00 0.00000E+00 0.00000E+00
 -1         2 0.00000E+00 0.00000E+00 0.00000E+00
 -1         3 0.00000E+00 0.00000E+00 0.00000E+00
 -1         4 0.00000E+00 0.00000E+00 0.00000E+00
 -1         9 0.00000E+00 0.00000E+00 0.00000E+00
 -1        10 0.00000E+00 0.00000E+00 0.00000E+00
 -1        11 0.00000E+00 0.00000E+00 0.00000E+00
 -1        12 0.00000E+00 0.00000E+00 0.00000E+00
 -1        13 0.00000E+00 0.00000E+00 0.00000E+00
 -1        14 0.00000E+00 0.00000E+00 0.00000E+00
 -1        15 0.00000E+00 0.00000E+00 0.00000E+00
 -1        16 0.00000E+00 0.00000E+00 0.00000E+00
 -1        17 0.00000E+00 0.00000E+00 0.00000E+00
 -1        18 0.00000E+00 0.00000E+00 0.00000E+00
 -1        19 0.00000E+00 0.00000E+00 0.00000E+00
 -1        20 0.00000E+00 0.00000E+00 0.00000E+00
 -1        33-3.20110E-05 7.91472E-05 1.02999E-04
 -1        34-1.55292E-05 2.44765E-04 1.87729E-04
 -1        35-1.28072E-05 4.92458E-04 2.42701E-04
 -1        36-4.60369E-06 7.74203E-04 2.70031E-04
 -1        37 4.11527E-06 1.07154E-03 2.71829E-04
 -1        38 1.32278E-05 1.36734E-03 2.50325E-04
 -1        39 2.08114E-05 1.60869E-03 1.85166E-04
 -1        40 1.41884E-05 1.78347E-03 9.23924E-05
 -1        41 3.37008E-05 1.81581E-03 2.07173E-05
 -1        42 4.23054E-05 1.87002E-03 1.13057E-05
 -1        43-3.42309E-05 1.70092E-03-7.83453E-05
 -1        44-1.42883E-04 1.61490E-03-2.33839E-04
 -1        51 1.42161E-04 1.61556E-03-2.33785E-04
 -1        52 3.36295E-05 1.70135E-03-7.83255E-05
 -1        53-4.27964E-05 1.87031E-03 1.13971E-05
 -1        54-3.41623E-05 1.81606E-03 2.07228E-05
 -1        55-1.46274E-05 1.78371E-03 9.23539E-05
 -1        56-2.11991E-05 1.60891E-03 1.85141E-04
 -1        57-1.35471E-05 1.36751E-03 2.50301E-04
 -1        58-4.37563E-06 1.07169E-03 2.71800E-04
 -1        59 4.40608E-06 7.74317E-04 2.70000E-04
 -1        60 1.26679E-05 4.92546E-04 2.42675E-04
 -1        61 1.54481E-05 2.44819E-04 1.87709E-04
 -1        62 3.19768E-05 7.91701E-05 1.02988E-04
 -1        63 3.19912E-05 7.91403E-05-1.02970E-04
 -1        64 1.55005E-05 2.44765E-04-1.87671E-04
 -1        65 1.27665E-05 4.92429E-04-2.42618E-04
 -1        66 4.55352E-06 7.74198E-04-2.69924E-04
 -1        67-4.33971E-06 1.07161E-03-2.71709E-04
 -1        68-1.34925E-05 1.36752E-03-2.50184E-04
 -1        69-2.05960E-05 1.60824E-03-1.84990E-04
 -1        70-1.37410E-05 1.78307E-03-9.21935E-05
 -1        71-3.57005E-05 1.81734E-03-2.05528E-05
 -1        72-4.54127E-05 1.87278E-03-1.11893E-05
 -1        73 4.15531E-05 1.69378E-03 7.87858E-05
 -1        74 1.56770E-04 1.60279E-03 2.34148E-04
 -1        78-3.19738E-05 7.91703E-05-1.02981E-04