
 displacements (vx,vy,vz) for set NALL and time  0.5000000E-02

         5  0.000000E+00  0.000000E+00  0.000000E+00
         6  0.000000E+00  0.000000E+00  0.000000E+00
         7  0.000000E+00  0.000000E+00  0.000000E+00
         8  0.000000E+00  0.000000E+00  0.000000E+00
        21  0.000000E+00  0.000000E+00  0.000000E+00
        22  0.000000E+00  0.000000E+00  0.000000E+00
        23  0.000000E+00  0.000000E+00  0.000000E+00
        24  0.000000E+00  0.000000E+00  0.000000E+00
        25  0.000000E+00  0.000000E+00  0.000000E+00
        26  0.000000E+00  0.000000E+00  0.000000E+00
        27  0.000000E+00  0.000000E+00  0.000000E+00
        28  0.000000E+00  0.000000E+00  0.000000E+00
        29  0.000000E+00  0.000000E+00  0.000000E+00
        30  0.000000E+00  0.000000E+00  0.000000E+00
        31  0.000000E+00  0.000000E+00  0.000000E+00
        32  0.000000E+00  0.000000E+00  0.000000E+00
        44 -6.248910E-06 -3.468078E-04  4.484278E-05
        45  5.652258E-06 -2.563489E-04  7.858556E-05
        46 -4.714247E-06 -1.793992E-04  9.492679E-05
        47  1.312518E-05 -6.743707E-05  5.428707E-05
        48 -1.312328E-05 -6.743564E-05  5.428339E-05
        49  4.724289E-06 -1.793969E-04  9.491839E-05
        50 -5.633968E-06 -2.563484E-04  7.857020E-05
        51  6.293811E-06 -3.468005E-04  4.481552E-05
        74  3.250893E-05 -4.423515E-04 -4.941009E-05
        75  1.945304E-05 -2.977671E-04 -7.845824E-05
        76 -1.124711E-05 -1.593509E-04 -9.497197E-05
        77 -2.088642E-05 -5.247446E-05 -5.578773E-05
        89 -3.246391E-05 -4.423588E-04 -4.943743E-05
        90 -1.943475E-05 -2.977675E-04 -7.847368E-05
        91  1.125713E-05 -1.593532E-04 -9.498038E-05
        92  2.088831E-05 -5.247592E-05 -5.579142E-05
        98  0.000000E+00  0.000000E+00  0.000000E+00
        99  0.000000E+00  0.000000E+00  0.000000E+00
       100  0.000000E+00  0.000000E+00  0.000000E+00
       101  0.000000E+00  0.000000E+00  0.000000E+00
       102  0.000000E+00  0.000000E+00  0.000000E+00
       124  1.478846E-05 -2.965228E-04  4.292020E-05
       125  1.674815E-08 -3.588130E-04  4.485092E-05
       126 -1.475019E-05 -2.965257E-04  4.292928E-05
       127  1.096399E-08 -2.561176E-04  9.034004E-05
       128 -8.630356E-07 -1.952729E-04  9.479854E-05
       129  3.023674E-09 -1.815191E-04  9.413283E-05
       130  8.709692E-07 -1.952742E-04  9.480375E-05
       131  6.574941E-10 -7.364992E-05  5.564447E-05
       153  7.188710E-06 -3.631761E-04  1.910000E-05
       154 -1.207420E-05 -2.499159E-04 -2.054677E-06
       155 -6.714827E-06 -3.887726E-04 -2.375944E-05
       156 -1.212394E-05 -2.788892E-04 -6.488518E-06
       157 -2.075945E-06 -1.508691E-04  3.925305E-05
       158  8.911945E-06 -1.566366E-04 -2.958565E-06
       159  4.715304E-06 -1.474475E-04 -4.110951E-05
       160  4.011539E-06 -6.565868E-05  4.899530E-07
       182  1.139546E-05 -2.557827E-04 -4.706941E-05
       183  1.678872E-08 -4.360086E-04 -4.762928E-05
       184 -1.135709E-05 -2.557855E-04 -4.707854E-05
       185  1.093893E-08 -2.833359E-04 -8.729975E-05
       186 -4.415604E-06 -2.163116E-04 -9.825447E-05
       187  3.022287E-09 -1.831130E-04 -9.633343E-05
       188  4.423523E-06 -2.163129E-04 -9.825969E-05
       189  6.545818E-10 -7.195024E-05 -5.644810E-05
       211  6.764486E-06 -3.887760E-04 -2.378427E-05
       212  1.212651E-05 -2.499159E-04 -2.081651E-06
       213 -7.139116E-06 -3.631728E-04  1.907527E-05
       214  1.214150E-05 -2.788892E-04 -6.504329E-06
       215 -4.704225E-06 -1.474487E-04 -4.111849E-05
       216 -8.899912E-06 -1.566366E-04 -2.966979E-06
       217  2.087036E-06 -1.508680E-04  3.924406E-05
       218 -4.009113E-06 -6.565869E-05  4.871287E-07
       250  1.667861E-08 -4.085110E-04  1.745189E-05
       251  3.122604E-06 -2.572415E-04 -1.033661E-06
       252  1.645316E-08 -3.122695E-04 -1.589657E-06
       253 -3.081058E-06 -2.572415E-04 -1.028691E-06
       254  1.670394E-08 -4.417782E-04 -2.541900E-05
       255  1.202282E-08 -2.597864E-04 -3.211704E-06
       256  2.931750E-09 -1.607079E-04  3.953340E-05
       257 -4.145543E-06 -1.748775E-04 -1.203306E-06
       258  2.660790E-09 -1.791069E-04 -1.453136E-06
       259  4.154089E-06 -1.748775E-04 -1.197237E-06
       260  2.929793E-09 -1.621870E-04 -4.179850E-05
       261  1.144780E-09 -7.172306E-05 -2.007282E-07

 forces (fx,fy,fz) for set NALL and time  0.5000000E-02

         5  2.276284E+00 -4.168700E+00 -1.107218E+00
         6 -2.276575E+00 -4.168569E+00 -1.107509E+00
         7  3.446864E+00  1.133513E+00  1.272071E+00
         8 -3.447152E+00  1.133631E+00  1.272359E+00
        21 -2.755841E+00  5.575841E+00 -1.789207E+01
        22 -2.471037E-05 -9.925091E+00 -6.552378E-01
        23  2.756241E+00  5.576327E+00 -1.789242E+01
        24 -4.638939E+00  1.709059E+01 -1.021254E+01
        25  8.563140E-01 -1.147610E+01 -4.661066E-01
        26  2.134399E+00  1.337153E+01  1.050244E+01
        27 -1.779590E+00 -4.945670E-01  1.758995E+01
        28 -2.412692E-05 -1.572523E+00  1.783032E+00
        29  1.779987E+00 -4.940828E-01  1.759029E+01
        30 -2.135278E+00  1.337161E+01  1.050347E+01
        31 -8.570656E-01 -1.147611E+01 -4.653328E-01
        32  4.638060E+00  1.709053E+01 -1.021151E+01
        44  1.782994E+00  5.180969E+01  1.439101E+00
        45 -7.100992E-07 -6.080753E-01  1.525488E-01
        46  5.481248E-07  1.541501E+00 -4.634063E-01
        47 -1.996989E-07 -1.167019E+00  5.403019E-01
        48  2.005039E-07 -1.167018E+00  5.403019E-01
        49 -4.851228E-07  1.541501E+00 -4.634063E-01
        50  5.345348E-07 -6.080755E-01  1.525487E-01
        51 -1.782263E+00  5.181005E+01  1.437929E+00
        74 -7.264689E+00  1.722271E+01 -9.880795E-01
        75  6.250874E-08 -6.080839E-01 -1.525460E-01
        76 -1.654866E-07  1.541507E+00  4.634055E-01
        77  4.046847E-07 -1.167020E+00 -5.403015E-01
        89  7.265411E+00  1.722243E+01 -9.892438E-01
        90 -3.487347E-07 -6.080835E-01 -1.525460E-01
        91  2.101375E-07  1.541507E+00  4.634055E-01
        92 -3.397619E-07 -1.167020E+00 -5.403015E-01
        98  5.921688E-04  3.806030E+01 -1.718098E+01
        99 -2.414772E-01 -7.623151E+00  6.568425E-01
       100  1.904257E-04 -2.294408E+01 -3.861302E-01
       101  2.421101E-01 -7.623156E+00  6.565899E-01
       102  5.916463E-04  3.531473E+01  1.649830E+01
       124  1.683561E+01  1.972177E+01 -6.197120E-01
       125  2.957114E-04  1.117591E+02  2.972842E+00
       126 -1.683685E+01  1.972117E+01 -6.208287E-01
       127  5.021024E-08 -1.216151E+00  3.050966E-01
       128  4.518357E-07 -2.615814E+00  9.358535E-01
       129 -1.384572E-08  3.083002E+00 -9.268123E-01
       130 -5.056920E-07 -2.615814E+00  9.358534E-01
       131  3.601493E-08 -2.334037E+00  1.080604E+00
       153  1.162974E+01 -1.324805E+02 -2.309089E+00
       154 -2.849442E+00  9.826165E+01  4.368930E-01
       155  4.097055E+00 -1.078556E+02  1.409404E+00
       156 -1.170631E-06 -1.216158E+00 -2.483937E-06
       157 -7.633524E-07 -2.615815E+00  7.018891E-01
       158  5.817026E-07  3.083008E+00  1.153377E-06
       159 -8.103569E-09 -2.615821E+00 -7.018894E-01
       160 -1.260902E-07 -2.334039E+00 -3.222513E-07
       182  7.695655E+00  6.569938E+01  4.227606E-01
       183  2.982229E-04  5.133601E+01 -1.390485E+00
       184 -7.696875E+00  6.569879E+01  4.238619E-01
       185  1.251745E-07 -6.742485E+00 -3.050914E-01
       186  2.593348E-07 -8.142138E+00 -9.358508E-01
       187 -5.151352E-08 -2.443302E+00  9.268112E-01
       188 -2.805457E-07 -8.142138E+00 -9.358508E-01
       189  4.662574E-08 -7.860356E+00 -1.080603E+00
       211 -4.095755E+00 -1.078557E+02  1.409095E+00
       212  2.851359E+00  9.826172E+01  4.341744E-01
       213 -1.162845E+01 -1.324806E+02 -2.309376E+00
       214  9.303310E-07 -1.216158E+00 -2.305442E-06
       215 -1.461003E-07 -2.615821E+00 -7.018895E-01
       216 -4.633064E-07  3.083008E+00  1.090397E-06
       217  6.211673E-07 -2.615815E+00  7.018891E-01
       218  5.457679E-08 -2.334039E+00 -4.776621E-07
       250 -1.009963E-03 -2.944049E+02 -5.866023E+00
       251  5.349489E+00  8.836832E+01  5.555762E-01
       252  4.586053E-04  2.058972E+02  1.308891E+00
       253 -5.351680E+00  8.836833E+01  5.515725E-01
       254 -1.014607E-03 -2.686112E+02  1.542439E+00
       255  3.314232E-07 -2.432317E+00 -6.085281E-06
       256  7.939995E-08 -5.231629E+00  1.403777E+00
       257  7.275280E-07 -5.231635E+00 -2.688899E-06
       258 -6.287281E-08  6.166016E+00  2.400795E-06
       259 -6.888720E-07 -5.231635E+00 -2.683176E-06
       260  1.810952E-07 -5.231643E+00 -1.403778E+00
       261 -6.022049E-08 -4.668078E+00 -9.358170E-07

 displacements (vx,vy,vz) for set NALL and time  0.1000000E-01

         5  0.000000E+00  0.000000E+00  0.000000E+00
         6  0.000000E+00  0.000000E+00  0.000000E+00
         7  0.000000E+00  0.000000E+00  0.000000E+00
         8  0.000000E+00  0.000000E+00  0.000000E+00
        21  0.000000E+00  0.000000E+00  0.000000E+00
        22  0.000000E+00  0.000000E+00  0.000000E+00
        23  0.000000E+00  0.000000E+00  0.000000E+00
        24  0.000000E+00  0.000000E+00  0.000000E+00
        25  0.000000E+00  0.000000E+00  0.000000E+00
        26  0.000000E+00  0.000000E+00  0.000000E+00
        27  0.000000E+00  0.000000E+00  0.000000E+00
        28  0.000000E+00  0.000000E+00  0.000000E+00
        29  0.000000E+00  0.000000E+00  0.000000E+00
        30  0.000000E+00  0.000000E+00  0.000000E+00
        31  0.000000E+00  0.000000E+00  0.000000E+00
        32  0.000000E+00  0.000000E+00  0.000000E+00
        44 -1.554635E-05  1.605572E-04 -2.339625E-05
        45 -3.728509E-06  1.248072E-04 -3.772630E-05
        46  4.241229E-06  9.142209E-05 -4.322289E-05
        47 -5.342003E-06  3.702983E-05 -2.840526E-05
        48  5.341736E-06  3.703185E-05 -2.840650E-05
        49 -4.244787E-06  9.142234E-05 -4.322060E-05
        50  3.739486E-06  1.248033E-04 -3.772655E-05
        51  1.556295E-05  1.605297E-04 -2.339518E-05
        74  1.505900E-05  1.615406E-04  2.341866E-05
        75  3.384065E-06  1.252837E-04  3.772133E-05
        76 -4.084162E-06  9.121138E-05  4.321131E-05
        77  5.442821E-06  3.687863E-05  2.841382E-05
        89 -1.504171E-05  1.615702E-04  2.341974E-05
        90 -3.369639E-06  1.252898E-04  3.771969E-05
        91  4.079969E-06  9.121163E-05  4.321342E-05
        92 -5.442477E-06  3.687686E-05  2.841224E-05
        98  0.000000E+00  0.000000E+00  0.000000E+00
        99  0.000000E+00  0.000000E+00  0.000000E+00
       100  0.000000E+00  0.000000E+00  0.000000E+00
       101  0.000000E+00  0.000000E+00  0.000000E+00
       102  0.000000E+00  0.000000E+00  0.000000E+00
       124  8.157278E-07  1.480811E-04 -2.205549E-05
       125  1.516647E-08  1.767697E-04 -2.312550E-05
       126 -7.973508E-07  1.480845E-04 -2.205755E-05
       127  1.312404E-09  1.301461E-04 -4.177473E-05
       128 -4.135758E-07  9.588751E-05 -4.635225E-05
       129  2.854367E-09  8.899906E-05 -4.725792E-05
       130  4.159285E-07  9.588960E-05 -4.635337E-05
       131 -7.308935E-10  3.754287E-05 -2.760608E-05
       153  1.265855E-05  1.913547E-04 -1.039514E-05
       154  4.156386E-08  1.695078E-04  1.846710E-08
       155 -1.255663E-05  1.919737E-04  1.041195E-05
       156  9.465267E-08  1.406666E-04  6.298813E-08
       157 -2.539741E-06  7.937246E-05 -1.860737E-05
       158 -4.202543E-08  8.100187E-05  2.750258E-08
       159  2.508200E-06  7.924848E-05  1.861630E-05
       160 -3.055166E-08  3.081012E-05 -3.035972E-09
       182  3.866062E-07  1.476740E-04  2.207482E-05
       183  1.915383E-08  1.774468E-04  2.315072E-05
       184 -3.638231E-07  1.476775E-04  2.207602E-05
       185  1.206981E-09  1.303258E-04  4.171386E-05
       186 -2.962849E-07  9.603761E-05  4.637289E-05
       187  4.250758E-09  8.893316E-05  4.725249E-05
       188  2.996735E-07  9.604015E-05  4.637416E-05
       189 -5.523119E-10  3.752240E-05  2.760746E-05
       211  1.255906E-05  1.919950E-04  1.041378E-05
       212 -3.811367E-08  1.695085E-04  1.194177E-08
       213 -1.265599E-05  1.913332E-04 -1.039235E-05
       214 -9.438616E-08  1.406678E-04  5.796355E-08
       215 -2.506089E-06  7.924717E-05  1.861445E-05
       216  4.724070E-08  8.100216E-05  2.481318E-08
       217  2.542036E-06  7.937483E-05 -1.860926E-05
       218  3.097440E-08  3.081030E-05 -2.571952E-09
       250  2.093400E-09  1.912002E-04 -1.029818E-05
       251 -2.028149E-07  1.209819E-04  3.554613E-09
       252 -1.369650E-08  1.541191E-04  6.061789E-09
       253  1.943071E-07  1.209817E-04  8.577942E-09
       254  4.409738E-09  1.911022E-04  1.034868E-05
       255  1.664428E-09  1.374986E-04  1.714278E-08
       256  5.707030E-10  7.829499E-05 -2.072819E-05
       257  6.350269E-08  9.141079E-05  4.286385E-09
       258 -1.025424E-09  8.125831E-05  7.850954E-09
       259 -6.298030E-08  9.141061E-05  5.359029E-09
       260  1.203935E-09  7.835567E-05  2.074139E-05
       261  1.345438E-09  3.486470E-05  2.507665E-09

 forces (fx,fy,fz) for set NALL and time  0.1000000E-01

         5 -1.670646E+00  3.822790E-01  9.250404E-01
         6  1.670608E+00  3.826505E-01  9.248733E-01
         7 -1.681441E+00  3.463856E-01 -9.267064E-01
         8  1.681562E+00  3.464750E-01 -9.266388E-01
        21  1.033306E+00 -1.653716E+00  8.959273E+00
        22 -6.748500E-04  7.649168E-01  1.405504E+00
        23 -1.032531E+00 -1.652977E+00  8.959142E+00
        24  1.158109E+00 -5.882233E+00  4.712497E+00
        25  9.634786E-03  2.424947E+00  4.718228E-03
        26 -1.146029E+00 -5.864076E+00 -4.715846E+00
        27  1.037078E+00 -1.601591E+00 -8.954326E+00
        28 -7.470461E-04  6.737341E-01 -1.417490E+00
        29 -1.036403E+00 -1.600900E+00 -8.954220E+00
        30  1.146152E+00 -5.865282E+00 -4.716042E+00
        31 -9.651218E-03  2.424709E+00  5.097445E-03
        32 -1.158128E+00 -5.880624E+00  4.712233E+00
        44 -6.186088E+00 -1.509770E+01 -7.484587E-01
        45  6.081813E-07  5.208678E-01 -1.306709E-01
        46 -4.699555E-07 -1.320425E+00  3.969466E-01
        47  1.719791E-07  9.996498E-01 -4.628141E-01
        48 -1.726683E-07  9.996497E-01 -4.628142E-01
        49  4.159866E-07 -1.320425E+00  3.969466E-01
        50 -4.577928E-07  5.208680E-01 -1.306709E-01
        51  6.187489E+00 -1.509527E+01 -7.497894E-01
        74  6.237325E+00 -1.484554E+01  7.497623E-01
        75 -5.300089E-08  5.208751E-01  1.306685E-01
        76  1.419139E-07 -1.320431E+00 -3.969459E-01
        77 -3.476195E-07  9.996509E-01  4.628138E-01
        89 -6.236454E+00 -1.484641E+01  7.484593E-01
        90  2.981804E-07  5.208748E-01  1.306685E-01
        91 -1.801634E-07 -1.320431E+00 -3.969459E-01
        92  2.920079E-07  9.996510E-01  4.628138E-01
        98 -2.698605E-05 -1.294178E+01  8.234558E+00
        99  2.624200E-02  3.918847E+00 -5.817378E-03
       100  1.296146E-03  5.339544E+00  2.800818E-03
       101 -2.752959E-02  3.918741E+00 -6.282407E-03
       102 -2.317492E-04 -1.287434E+01 -8.226419E+00
       124 -6.429448E+00 -1.691178E+01  4.595554E-01
       125  3.258240E-03 -3.133547E+01 -1.391038E+00
       126  6.426647E+00 -1.691441E+01  4.581115E-01
       127 -4.300631E-08  1.041736E+00 -2.613410E-01
       128 -3.876054E-07  2.240665E+00 -8.016374E-01
       129  1.185767E-08 -2.640851E+00  7.938929E-01
       130  4.337407E-07  2.240665E+00 -8.016374E-01
       131 -3.084949E-08  1.999299E+00 -9.256281E-01
       153  4.699341E+00  5.166149E+01  1.165489E+00
       154 -1.333026E-01 -3.290794E+01  2.189260E-03
       155 -4.741835E+00  5.155238E+01 -1.167632E+00
       156  1.002125E-06  1.041742E+00  2.126796E-06
       157  6.544454E-07  2.240666E+00 -6.012273E-01
       158 -4.982348E-07 -2.640856E+00 -9.874026E-07
       159  6.715469E-09  2.240671E+00  6.012275E-01
       160  1.084038E-07  1.999301E+00  2.760441E-07
       182 -6.450789E+00 -1.732838E+01 -4.627132E-01
       183  3.533123E-03 -3.058449E+01  1.387467E+00
       184  6.448692E+00 -1.733136E+01 -4.610735E-01
       185 -1.072196E-07  1.069452E+00  2.613365E-01
       186 -2.224582E-07  2.268373E+00  8.016352E-01
       187  4.412337E-08 -2.613161E+00 -7.938919E-01
       188  2.406299E-07  2.268373E+00  8.016351E-01
       189 -3.993859E-08  2.027003E+00  9.256272E-01
       211  4.741703E+00  5.156066E+01 -1.164674E+00
       212  1.297967E-01 -3.290636E+01 -1.650567E-03
       213 -4.699127E+00  5.165006E+01  1.168871E+00
       214 -7.962816E-07  1.041742E+00  1.973897E-06
       215  1.253760E-07  2.240671E+00  6.012275E-01
       216  3.968137E-07 -2.640856E+00 -9.334530E-07
       217 -5.326490E-07  2.240666E+00 -6.012273E-01
       218 -4.714577E-08  1.999301E+00  4.091658E-07
       250  1.079722E-04  1.052668E+02  2.320614E+00
       251 -2.650948E-01 -4.732841E+01 -6.348535E-03
       252 -7.627869E-03 -6.985603E+01 -6.347346E-03
       253  2.713048E-01 -4.732798E+01 -2.937110E-03
       254  6.209897E-04  1.046297E+02 -2.293805E+00
       255 -2.838857E-07  2.083485E+00  5.211013E-06
       256 -6.800991E-08  4.481332E+00 -1.202454E+00
       257 -6.234726E-07  4.481337E+00  2.302457E-06
       258  5.385105E-08 -5.281712E+00 -2.055348E-06
       259  5.903661E-07  4.481337E+00  2.297557E-06
       260 -1.551205E-07  4.481343E+00  1.202455E+00
       261  5.158453E-08  3.998602E+00  8.015530E-07

 displacements (vx,vy,vz) for set NALL and time  0.1500000E-01

         5  0.000000E+00  0.000000E+00  0.000000E+00
         6  0.000000E+00  0.000000E+00  0.000000E+00
         7  0.000000E+00  0.000000E+00  0.000000E+00
         8  0.000000E+00  0.000000E+00  0.000000E+00
        21  0.000000E+00  0.000000E+00  0.000000E+00
        22  0.000000E+00  0.000000E+00  0.000000E+00
        23  0.000000E+00  0.000000E+00  0.000000E+00
        24  0.000000E+00  0.000000E+00  0.000000E+00
        25  0.000000E+00  0.000000E+00  0.000000E+00
        26  0.000000E+00  0.000000E+00  0.000000E+00
        27  0.000000E+00  0.000000E+00  0.000000E+00
        28  0.000000E+00  0.000000E+00  0.000000E+00
        29  0.000000E+00  0.000000E+00  0.000000E+00
        30  0.000000E+00  0.000000E+00  0.000000E+00
        31  0.000000E+00  0.000000E+00  0.000000E+00
        32  0.000000E+00  0.000000E+00  0.000000E+00
        44  1.252032E-05 -1.268971E-04  1.851495E-05
        45  2.990471E-06 -9.872652E-05  2.985327E-05
        46 -3.403189E-06 -7.246112E-05  3.417733E-05
        47  4.203595E-06 -2.938196E-05  2.250706E-05
        48 -4.204160E-06 -2.938273E-05  2.250830E-05
        49  3.402380E-06 -7.246310E-05  3.417881E-05
        50 -2.999447E-06 -9.872293E-05  2.985359E-05
        51 -1.253171E-05 -1.268869E-04  1.851735E-05
        74 -1.228086E-05 -1.272507E-04 -1.851907E-05
        75 -2.829044E-06 -9.890376E-05 -2.986182E-05
        76  3.349429E-06 -7.241011E-05 -3.417726E-05
        77 -4.248645E-06 -2.932943E-05 -2.250784E-05
        89  1.227113E-05 -1.272734E-04 -1.852601E-05
        90  2.816966E-06 -9.890319E-05 -2.986202E-05
        91 -3.348345E-06 -7.241209E-05 -3.417418E-05
        92  4.247556E-06 -2.932835E-05 -2.250458E-05
        98  0.000000E+00  0.000000E+00  0.000000E+00
        99  0.000000E+00  0.000000E+00  0.000000E+00
       100  0.000000E+00  0.000000E+00  0.000000E+00
       101  0.000000E+00  0.000000E+00  0.000000E+00
       102  0.000000E+00  0.000000E+00  0.000000E+00
       124 -7.016741E-07 -1.172795E-04  1.745646E-05
       125 -7.400828E-09 -1.398827E-04  1.830889E-05
       126  6.905813E-07 -1.172795E-04  1.745516E-05
       127 -2.323873E-09 -1.030815E-04  3.303333E-05
       128  3.394227E-07 -7.590739E-05  3.668540E-05
       129 -2.472253E-09 -7.045084E-05  3.741442E-05
       130 -3.428094E-07 -7.590746E-05  3.668492E-05
       131 -7.773910E-11 -2.973647E-05  2.185294E-05
       153 -1.018859E-05 -1.516382E-04  8.233100E-06
       154  2.615364E-08 -1.346310E-04  2.624801E-09
       155  1.010167E-05 -1.520776E-04 -8.229784E-06
       156 -2.634293E-08 -1.113371E-04 -2.292637E-08
       157  2.041007E-06 -6.292196E-05  1.471492E-05
       158 -3.436751E-09 -6.422604E-05 -9.479578E-09
       159 -2.026183E-06 -6.283729E-05 -1.471729E-05
       160  6.597002E-09 -2.439687E-05  8.625288E-10
       182 -3.332728E-07 -1.171446E-04 -1.746266E-05
       183 -1.277243E-08 -1.400402E-04 -1.832172E-05
       184  3.178145E-07 -1.171506E-04 -1.746056E-05
       185 -1.554243E-09 -1.031082E-04 -3.298592E-05
       186  2.577710E-07 -7.593865E-05 -3.668951E-05
       187 -3.507791E-09 -7.039677E-05 -3.740333E-05
       188 -2.613130E-07 -7.594073E-05 -3.668935E-05
       189  2.146786E-11 -2.973486E-05 -2.185478E-05
       211 -1.010347E-05 -1.520892E-04 -8.227439E-06
       212 -2.570441E-08 -1.346259E-04 -3.524038E-09
       213  1.018752E-05 -1.516275E-04  8.229559E-06
       214  2.019897E-08 -1.113398E-04 -2.078233E-08
       215  2.024660E-06 -6.283664E-05 -1.471597E-05
       216  6.300096E-10 -6.422416E-05 -6.312185E-09
       217 -2.043668E-06 -6.292268E-05  1.471758E-05
       218 -7.858463E-09 -2.439721E-05  2.489338E-09
       250 -3.989842E-09 -1.510948E-04  8.151273E-06
       251  1.664180E-07 -9.574147E-05  5.955543E-09
       252  9.493246E-10 -1.218751E-04 -3.896616E-09
       253 -1.667683E-07 -9.574451E-05  4.670260E-09
       254 -6.712409E-09 -1.507893E-04 -8.174347E-06
       255 -1.818537E-09 -1.089597E-04 -3.747073E-09
       256 -1.885902E-09 -6.198747E-05  1.642514E-05
       257 -3.998384E-08 -7.241849E-05  2.012001E-10
       258 -1.631465E-09 -6.425278E-05  1.009255E-09
       259  3.737636E-08 -7.241935E-05 -4.405091E-10
       260 -2.421057E-09 -6.204594E-05 -1.642354E-05
       261 -7.886769E-10 -2.760511E-05 -1.064186E-09

 forces (fx,fy,fz) for set NALL and time  0.1500000E-01

         5  1.328879E+00 -2.957406E-01 -7.346547E-01
         6 -1.328683E+00 -2.960078E-01 -7.346412E-01
         7  1.331407E+00 -2.936090E-01  7.348037E-01
         8 -1.331471E+00 -2.935807E-01  7.353236E-01
        21 -8.178347E-01  1.307764E+00 -7.097081E+00
        22  3.823038E-04 -5.663506E-01 -1.124488E+00
        23  8.173362E-01  1.307297E+00 -7.096666E+00
        24 -9.081323E-01  4.642586E+00 -3.727932E+00
        25 -1.318775E-02 -1.907953E+00 -1.576498E-03
        26  9.094642E-01  4.650496E+00  3.729986E+00
        27 -8.220464E-01  1.295121E+00  7.094599E+00
        28  5.078664E-04 -5.278726E-01  1.129152E+00
        29  8.215056E-01  1.295235E+00  7.094093E+00
        30 -9.099422E-01  4.651180E+00  3.729354E+00
        31  1.321843E-02 -1.908241E+00 -1.057373E-03
        32  9.080016E-01  4.642079E+00 -3.728116E+00
        44  4.957173E+00  1.191145E+01  5.935908E-01
        45 -4.832373E-07 -4.142579E-01  1.039255E-01
        46  3.743888E-07  1.050164E+00 -3.157006E-01
        47 -1.384492E-07 -7.950441E-01  3.680866E-01
        48  1.389970E-07 -7.950440E-01  3.680866E-01
        49 -3.314634E-07  1.050164E+00 -3.157006E-01
        50  3.636266E-07 -4.142580E-01  1.039255E-01
        51 -4.957797E+00  1.191070E+01  5.938538E-01
        74 -4.968540E+00  1.188716E+01 -5.939886E-01
        75  4.103409E-08 -4.142637E-01 -1.039236E-01
        76 -1.130972E-07  1.050168E+00  3.157001E-01
        77  2.782154E-07 -7.950450E-01 -3.680863E-01
        89  4.968469E+00  1.188722E+01 -5.959961E-01
        90 -2.360340E-07 -4.142634E-01 -1.039236E-01
        91  1.435205E-07  1.050168E+00  3.157001E-01
        92 -2.339866E-07 -7.950451E-01 -3.680863E-01
        98  5.361672E-05  1.017522E+01 -6.514375E+00
        99 -2.310473E-02 -3.086009E+00  9.086675E-04
       100 -8.862693E-05 -4.171343E+00 -6.788974E-04
       101  2.318628E-02 -3.085365E+00  1.840659E-03
       102  6.152552E-04  1.012259E+01  6.511974E+00
       124  5.093920E+00  1.339958E+01 -3.661106E-01
       125 -1.191929E-03  2.459230E+01  1.104099E+00
       126 -5.092734E+00  1.340035E+01 -3.665641E-01
       127  3.420035E-08 -8.285158E-01  2.078504E-01
       128  3.091714E-07 -1.782052E+00  6.375604E-01
       129 -9.427851E-09  2.100328E+00 -6.314010E-01
       130 -3.458671E-07 -1.782052E+00  6.375604E-01
       131  2.453494E-08 -1.590088E+00  7.361730E-01
       153 -3.821762E+00 -4.084418E+01 -9.256106E-01
       154  1.322130E-01  2.603418E+01 -1.057402E-03
       155  3.783611E+00 -4.090740E+01  9.257200E-01
       156 -7.961341E-07 -8.285210E-01 -1.690217E-06
       157 -5.213799E-07 -1.782052E+00  4.781697E-01
       158  3.961942E-07  2.100333E+00  7.845148E-07
       159 -4.937270E-09 -1.782057E+00 -4.781698E-01
       160 -8.677496E-08 -1.590089E+00 -2.195564E-07
       182  5.139077E+00  1.351500E+01  3.671712E-01
       183 -1.401529E-03  2.424322E+01 -1.105627E+00
       184 -5.138115E+00  1.351541E+01  3.696155E-01
       185  8.527083E-08 -8.299860E-01 -2.078468E-01
       186  1.774690E-07 -1.783516E+00 -6.375586E-01
       187 -3.508964E-08  2.098879E+00  6.314002E-01
       188 -1.919243E-07 -1.783515E+00 -6.375586E-01
       189  3.176375E-08 -1.591549E+00 -7.361723E-01
       211 -3.783329E+00 -4.091129E+01  9.281762E-01
       212 -1.304784E-01  2.603461E+01 -3.404209E-03
       213  3.822198E+00 -4.084008E+01 -9.263739E-01
       214  6.324151E-07 -8.285210E-01 -1.568610E-06
       215 -1.001213E-07 -1.782056E+00 -4.781699E-01
       216 -3.155260E-07  2.100332E+00  7.416050E-07
       217  4.245091E-07 -1.782052E+00  4.781697E-01
       218  3.805434E-08 -1.590089E+00 -3.254301E-07
       250 -2.371978E-04 -8.282805E+01 -1.841723E+00
       251  2.131461E-01  3.738065E+01  9.594871E-03
       252  2.462383E-03  5.500703E+01 -4.064740E-03
       253 -2.153746E-01  3.737931E+01  6.789183E-03
       254 -1.374499E-03 -8.235827E+01  1.831143E+00
       255  2.257730E-07 -1.657042E+00 -4.142272E-06
       256  5.408643E-08 -3.564105E+00  9.563386E-01
       257  4.962582E-07 -3.564109E+00 -1.830058E-06
       258 -4.282323E-08  4.200665E+00  1.633071E-06
       259 -4.699347E-07 -3.564109E+00 -1.826164E-06
       260  1.233677E-07 -3.564114E+00 -9.563394E-01
       261 -4.102697E-08 -3.180179E+00 -6.374186E-07

 displacements (vx,vy,vz) for set NALL and time  0.2000000E-01

         5  0.000000E+00  0.000000E+00  0.000000E+00
         6  0.000000E+00  0.000000E+00  0.000000E+00
         7  0.000000E+00  0.000000E+00  0.000000E+00
         8  0.000000E+00  0.000000E+00  0.000000E+00
        21  0.000000E+00  0.000000E+00  0.000000E+00
        22  0.000000E+00  0.000000E+00  0.000000E+00
        23  0.000000E+00  0.000000E+00  0.000000E+00
        24  0.000000E+00  0.000000E+00  0.000000E+00
        25  0.000000E+00  0.000000E+00  0.000000E+00
        26  0.000000E+00  0.000000E+00  0.000000E+00
        27  0.000000E+00  0.000000E+00  0.000000E+00
        28  0.000000E+00  0.000000E+00  0.000000E+00
        29  0.000000E+00  0.000000E+00  0.000000E+00
        30  0.000000E+00  0.000000E+00  0.000000E+00
        31  0.000000E+00  0.000000E+00  0.000000E+00
        32  0.000000E+00  0.000000E+00  0.000000E+00
        44 -9.645332E-06  9.870160E-05 -1.439772E-05
        45 -2.288174E-06  7.674366E-05 -2.318735E-05
        46  2.603901E-06  5.622339E-05 -2.656071E-05
        47 -3.282538E-06  2.278475E-05 -1.747496E-05
        48  3.283062E-06  2.278556E-05 -1.747641E-05
        49 -2.604570E-06  5.622182E-05 -2.656127E-05
        50  2.295091E-06  7.674387E-05 -2.318865E-05
        51  9.654629E-06  9.868676E-05 -1.439673E-05
        74  9.335084E-06  9.898897E-05  1.439762E-05
        75  2.120300E-06  7.692272E-05  2.319206E-05
        76 -2.549900E-06  5.616267E-05  2.656246E-05
        77  3.331993E-06  2.273712E-05  1.747543E-05
        89 -9.324855E-06  9.899345E-05  1.439195E-05
        90 -2.114405E-06  7.692573E-05  2.318954E-05
        91  2.549812E-06  5.616104E-05  2.656248E-05
        92 -3.331917E-06  2.273637E-05  1.747508E-05
        98  0.000000E+00  0.000000E+00  0.000000E+00
        99  0.000000E+00  0.000000E+00  0.000000E+00
       100  0.000000E+00  0.000000E+00  0.000000E+00
       101  0.000000E+00  0.000000E+00  0.000000E+00
       102  0.000000E+00  0.000000E+00  0.000000E+00
       124  5.957307E-07  9.106152E-05 -1.357035E-05
       125  8.808153E-09  1.087134E-04 -1.422351E-05
       126 -5.840610E-07  9.106582E-05 -1.357079E-05
       127  1.666739E-09  8.005239E-05 -2.568018E-05
       128 -2.640567E-07  5.896520E-05 -2.850391E-05
       129  1.706585E-09  5.472779E-05 -2.906670E-05
       130  2.658529E-07  5.896664E-05 -2.850375E-05
       131 -1.642374E-10  2.309217E-05 -1.697734E-05
       153  7.873613E-06  1.176811E-04 -6.396126E-06
       154 -5.780674E-08  1.044909E-04  2.902977E-09
       155 -7.748576E-06  1.180658E-04  6.396500E-06
       156 -1.438667E-09  8.655419E-05  2.444628E-08
       157 -1.580549E-06  4.882966E-05 -1.144265E-05
       158  2.153115E-08  4.979584E-05  5.764597E-09
       159  1.557800E-06  4.874526E-05  1.144056E-05
       160 -3.628748E-10  1.892906E-05 -6.995626E-10
       182  1.902425E-07  9.096494E-05  1.357123E-05
       183  6.423091E-09  1.088231E-04  1.423332E-05
       184 -1.804628E-07  9.096369E-05  1.356978E-05
       185  1.490462E-09  8.003093E-05  2.564709E-05
       186 -1.818451E-07  5.898750E-05  2.850633E-05
       187  1.448479E-09  5.470663E-05  2.905149E-05
       188  1.836398E-07  5.898744E-05  2.850615E-05
       189 -1.289512E-10  2.309927E-05  1.697733E-05
       211  7.754625E-06  1.180711E-04  6.396400E-06
       212  6.561821E-08  1.044937E-04 -2.042054E-09
       213 -7.866628E-06  1.176722E-04 -6.399799E-06
       214  3.217298E-09  8.655253E-05  2.105836E-08
       215 -1.555561E-06  4.874465E-05  1.143840E-05
       216 -1.812664E-08  4.979701E-05  3.970237E-09
       217  1.582280E-06  4.883022E-05 -1.144370E-05
       218  7.102694E-10  1.892876E-05 -8.667689E-10
       250  3.280032E-09  1.176441E-04 -6.336590E-06
       251 -1.499870E-07  7.433044E-05 -4.217380E-09