    1C
    1UUSER                                                              
    1UDATE              18.july.2018                                    
    1UTIME              00:08:38                                        
    1UHOST                                                              
    1UPGM               CalculiX                                        
    1UVERSION           Version 2.13                             
    1UCOMPILETIME       jue jun 14 00:40:39 CEST 2018                    
    1UDIR                                                               
    1UDBN                                                               
    1UMAT    1EL                                                        
    2C                           201                                     1
 -1         1 0.00000E+00 0.00000E+00 0.00000E+00
 -1         2 1.00000E+00 0.00000E+00 0.00000E+00
 -1         3 1.00000E+00 1.00000E+00 0.00000E+00
 -1         4 0.00000E+00 1.00000E+00 0.00000E+00
 -1         9 2.50000E-01 0.00000E+00 0.00000E+00
 -1        10 5.00000E-01 0.00000E+00 0.00000E+00
 -1        11 7.50000E-01 0.00000E+00 0.00000E+00
 -1        12 1.00000E+00 2.50000E-01 0.00000E+00
 -1        13 1.00000E+00 5.00000E-01 0.00000E+00
 -1        14 1.00000E+00 7.50000E-01 0.00000E+00
 -1        15 7.50000E-01 1.00000E+00 0.00000E+00
 -1        16 5.00000E-01 1.00000E+00 0.00000E+00
 -1        17 2.50000E-01 1.00000E+00 0.00000E+00
 -1        18 0.00000E+00 7.50000E-01 0.00000E+00
 -1        19 0.00000E+00 5.00000E-01 0.00000E+00
 -1        20 0.00000E+00 2.50000E-01 0.00000E+00
 -1        33 1.00000E+00 0.00000E+00 5.00000E-01
 -1        34 1.00000E+00 0.00000E+00 1.00000E+00
 -1        35 1.00000E+00 0.00000E+00 1.50000E+00
 -1        36 1.00000E+00 0.00000E+00 2.00000E+00
 -1        37 1.00000E+00 0.00000E+00 2.50000E+00
 -1        38 1.00000E+00 0.00000E+00 3.00000E+00
 -1        39 1.00000E+00 0.00000E+00 3.50000E+00
 -1        40 1.00000E+00 0.00000E+00 4.00000E+00
 -1        41 1.00000E+00 0.00000E+00 4.50000E+00
 -1        42 1.00000E+00 0.00000E+00 5.00000E+00
 -1        43 1.00000E+00 0.00000E+00 5.50000E+00
 -1        44 1.00000E+00 0.00000E+00 6.00000E+00
 -1        51 0.00000E+00 0.00000E+00 6.00000E+00
 -1        52 0.00000E+00 0.00000E+00 5.50000E+00
 -1        53 0.00000E+00 0.00000E+00 5.00000E+00
 -1        54 0.00000E+00 0.00000E+00 4.50000E+00
 -1        55 0.00000E+00 0.00000E+00 4.00000E+00
 -1        56 0.00000E+00 0.00000E+00 3.50000E+00
 -1        57 0.00000E+00 0.00000E+00 3.00000E+00
 -1        58 0.00000E+00 0.00000E+00 2.50000E+00
 -1        59 0.00000E+00 0.00000E+00 2.00000E+00
 -1        60 0.00000E+00 0.00000E+00 1.50000E+00
 -1        61 0.00000E+00 0.00000E+00 1.00000E+00
 -1        62 0.00000E+00 0.00000E+00 5.00000E-01
 -1        63 1.00000E+00 1.00000E+00 5.00000E-01
 -1        64 1.00000E+00 1.00000E+00 1.00000E+00
 -1        65 1.00000E+00 1.00000E+00 1.50000E+00
 -1        66 1.00000E+00 1.00000E+00 2.00000E+00
 -1        67 1.00000E+00 1.00000E+00 2.50000E+00
 -1        68 1.00000E+00 1.00000E+00 3.00000E+00
 -1        69 1.00000E+00 1.00000E+00 3.50000E+00
 -1        70 1.00000E+00 1.00000E+00 4.00000E+00
 -1        71 1.00000E+00 1.00000E+00 4.50000E+00
 -1        72 1.00000E+00 1.00000E+00 5.00000E+00
 -1        73 1.00000E+00 1.00000E+00 5.50000E+00
 -1        74 1.00000E+00 1.00000E+00 6.00000E+00
 -1        78 0.00000E+00 1.00000E+00 5.00000E-01
 -1        79 0.00000E+00 1.00000E+00 1.00000E+00
 -1        80 0.00000E+00 1.00000E+00 1.50000E+00
 -1        81 0.00000E+00 1.00000E+00 2.00000E+00
 -1        82 0.00000E+00 1.00000E+00 2.50000E+00
 -1        83 0.00000E+00 1.00000E+00 3.00000E+00
 -1        84 0.00000E+00 1.00000E+00 3.50000E+00
 -1        85 0.00000E+00 1.00000E+00 4.00000E+00
 -1        86 0.00000E+00 1.00000E+00 4.50000E+00
 -1        87 0.00000E+00 1.00000E+00 5.00000E+00
 -1        88 0.00000E+00 1.00000E+00 5.50000E+00
 -1        89 0.00000E+00 1.00000E+00 6.00000E+00
 -1        93 5.00000E-01 2.50000E-01 0.00000E+00
 -1        94 2.50000E-01 5.00000E-01 0.00000E+00
 -1        95 5.00000E-01 5.00000E-01 0.00000E+00
 -1        96 7.50000E-01 5.00000E-01 0.00000E+00
 -1        97 5.00000E-01 7.50000E-01 0.00000E+00
 -1       103 5.00000E-01 0.00000E+00 5.00000E-01
 -1       104 2.50000E-01 0.00000E+00 1.00000E+00
 -1       105 5.00000E-01 0.00000E+00 1.00000E+00
 -1       106 7.50000E-01 0.00000E+00 1.00000E+00
 -1       107 5.00000E-01 0.00000E+00 1.50000E+00
 -1       108 2.50000E-01 0.00000E+00 2.00000E+00
 -1       109 5.00000E-01 0.00000E+00 2.00000E+00
 -1       110 7.50000E-01 0.00000E+00 2.00000E+00
 -1       111 5.00000E-01 0.00000E+00 2.50000E+00
 -1       112 2.50000E-01 0.00000E+00 3.00000E+00
 -1       113 5.00000E-01 0.00000E+00 3.00000E+00
 -1       114 7.50000E-01 0.00000E+00 3.00000E+00
 -1       115 5.00000E-01 0.00000E+00 3.50000E+00
 -1       116 2.50000E-01 0.00000E+00 4.00000E+00
 -1       117 5.00000E-01 0.00000E+00 4.00000E+00
 -1       118 7.50000E-01 0.00000E+00 4.00000E+00
 -1       119 5.00000E-01 0.00000E+00 4.50000E+00
 -1       120 2.50000E-01 0.00000E+00 5.00000E+00
 -1       121 5.00000E-01 0.00000E+00 5.00000E+00
 -1       122 7.50000E-01 0.00000E+00 5.00000E+00
 -1       123 5.00000E-01 0.00000E+00 5.50000E+00
 -1       124 2.50000E-01 0.00000E+00 6.00000E+00
 -1       125 5.00000E-01 0.00000E+00 6.00000E+00
 -1       126 7.50000E-01 0.00000E+00 6.00000E+00
 -1       132 1.00000E+00 5.00000E-01 5.00000E-01
 -1       133 1.00000E+00 2.50000E-01 1.00000E+00
 -1       134 1.00000E+00 5.00000E-01 1.00000E+00
 -1       135 1.00000E+00 7.50000E-01 1.00000E+00
 -1       136 1.00000E+00 5.00000E-01 1.50000E+00
 -1       137 1.00000E+00 2.50000E-01 2.00000E+00
 -1       138 1.00000E+00 5.00000E-01 2.00000E+00
 -1       139 1.00000E+00 7.50000E-01 2.00000E+00
 -1       140 1.00000E+00 5.00000E-01 2.50000E+00
 -1       141 1.00000E+00 2.50000E-01 3.00000E+00
 -1       142 1.00000E+00 5.00000E-01 3.00000E+00
 -1       143 1.00000E+00 7.50000E-01 3.00000E+00
 -1       144 1.00000E+00 5.00000E-01 3.50000E+00
 -1       145 1.00000E+00 2.50000E-01 4.00000E+00
 -1       146 1.00000E+00 5.00000E-01 4.00000E+00
 -1       147 1.00000E+00 7.50000E-01 4.00000E+00
 -1       148 1.00000E+00 5.00000E-01 4.50000E+00
 -1       149 1.00000E+00 2.50000E-01 5.00000E+00
 -1       150 1.00000E+00 5.00000E-01 5.00000E+00
 -1       151 1.00000E+00 7.50000E-01 5.00000E+00
 -1       152 1.00000E+00 5.00000E-01 5.50000E+00
 -1       153 1.00000E+00 2.50000E-01 6.00000E+00
 -1       154 1.00000E+00 5.00000E-01 6.00000E+00
 -1       155 1.00000E+00 7.50000E-01 6.00000E+00
 -1       161 5.00000E-01 1.00000E+00 5.00000E-01
 -1       162 7.50000E-01 1.00000E+00 1.00000E+00
 -1       163 5.00000E-01 1.00000E+00 1.00000E+00
 -1       164 2.50000E-01 1.00000E+00 1.00000E+00
 -1       165 5.00000E-01 1.00000E+00 1.50000E+00
 -1       166 7.50000E-01 1.00000E+00 2.00000E+00
 -1       167 5.00000E-01 1.00000E+00 2.00000E+00
 -1       168 2.50000E-01 1.00000E+00 2.00000E+00
 -1       169 5.00000E-01 1.00000E+00 2.50000E+00
 -1       170 7.50000E-01 1.00000E+00 3.00000E+00
 -1       171 5.00000E-01 1.00000E+00 3.00000E+00
 -1       172 2.50000E-01 1.00000E+00 3.00000E+00
 -1       173 5.00000E-01 1.00000E+00 3.50000E+00
 -1       174 7.50000E-01 1.00000E+00 4.00000E+00
 -1       175 5.00000E-01 1.00000E+00 4.00000E+00
 -1       176 2.50000E-01 1.00000E+00 4.00000E+00
 -1       177 5.00000E-01 1.00000E+00 4.50000E+00
 -1       178 7.50000E-01 1.00000E+00 5.00000E+00
 -1       179 5.00000E-01 1.00000E+00 5.00000E+00
 -1       180 2.50000E-01 1.00000E+00 5.00000E+00
 -1       181 5.00000E-01 1.00000E+00 5.50000E+00
 -1       182 7.50000E-01 1.00000E+00 6.00000E+00
 -1       183 5.00000E-01 1.00000E+00 6.00000E+00
 -1       184 2.50000E-01 1.00000E+00 6.00000E+00
 -1       190 0.00000E+00 5.00000E-01 5.00000E-01
 -1       191 0.00000E+00 7.50000E-01 1.00000E+00
 -1       192 0.00000E+00 5.00000E-01 1.00000E+00
 -1       193 0.00000E+00 2.50000E-01 1.00000E+00
 -1       194 0.00000E+00 5.00000E-01 1.50000E+00
 -1       195 0.00000E+00 7.50000E-01 2.00000E+00
 -1       196 0.00000E+00 5.00000E-01 2.00000E+00
 -1       197 0.00000E+00 2.50000E-01 2.00000E+00
 -1       198 0.00000E+00 5.00000E-01 2.50000E+00
 -1       199 0.00000E+00 7.50000E-01 3.00000E+00
 -1       200 0.00000E+00 5.00000E-01 3.00000E+00
 -1       201 0.00000E+00 2.50000E-01 3.00000E+00
 -1       202 0.00000E+00 5.00000E-01 3.50000E+00
 -1       203 0.00000E+00 7.50000E-01 4.00000E+00
 -1       204 0.00000E+00 5.00000E-01 4.00000E+00
 -1       205 0.00000E+00 2.50000E-01 4.00000E+00
 -1       206 0.00000E+00 5.00000E-01 4.50000E+00
 -1       207 0.00000E+00 7.50000E-01 5.00000E+00
 -1       208 0.00000E+00 5.00000E-01 5.00000E+00
 -1       209 0.00000E+00 2.50000E-01 5.00000E+00
 -1       210 0.00000E+00 5.00000E-01 5.50000E+00
 -1       211 0.00000E+00 7.50000E-01 6.00000E+00
 -1       212 0.00000E+00 5.00000E-01 6.00000E+00
 -1       213 0.00000E+00 2.50000E-01 6.00000E+00
 -1       219 5.00000E-01 5.00000E-01 5.00000E-01
 -1       220 5.00000E-01 2.50000E-01 1.00000E+00
 -1       221 2.50000E-01 5.00000E-01 1.00000E+00
 -1       222 5.00000E-01 5.00000E-01 1.00000E+00
 -1       223 7.50000E-01 5.00000E-01 1.00000E+00
 -1       224 5.00000E-01 7.50000E-01 1.00000E+00
 -1       225 5.00000E-01 5.00000E-01 1.50000E+00
 -1       226 5.00000E-01 2.50000E-01 2.00000E+00
 -1       227 2.50000E-01 5.00000E-01 2.00000E+00
 -1       228 5.00000E-01 5.00000E-01 2.00000E+00
 -1       229 7.50000E-01 5.00000E-01 2.00000E+00
 -1       230 5.00000E-01 7.50000E-01 2.00000E+00
 -1       231 5.00000E-01 5.00000E-01 2.50000E+00
 -1       232 5.00000E-01 2.50000E-01 3.00000E+00
 -1       233 2.50000E-01 5.00000E-01 3.00000E+00
 -1       234 5.00000E-01 5.00000E-01 3.00000E+00
 -1       235 7.50000E-01 5.00000E-01 3.00000E+00
 -1       236 5.00000E-01 7.50000E-01 3.00000E+00
 -1       237 5.00000E-01 5.00000E-01 3.50000E+00
 -1       238 5.00000E-01 2.50000E-01 4.00000E+00
 -1       239 2.50000E-01 5.00000E-01 4.00000E+00
 -1       240 5.00000E-01 5.00000E-01 4.00000E+00
 -1       241 7.50000E-01 5.00000E-01 4.00000E+00
 -1       242 5.00000E-01 7.50000E-01 4.00000E+00
 -1       243 5.00000E-01 5.00000E-01 4.50000E+00
 -1       244 5.00000E-01 2.50000E-01 5.00000E+00
 -1       245 2.50000E-01 5.00000E-01 5.00000E+00
 -1       246 5.00000E-01 5.00000E-01 5.00000E+00
 -1       247 7.50000E-01 5.00000E-01 5.00000E+00
 -1       248 5.00000E-01 7.50000E-01 5.00000E+00
 -1       249 5.00000E-01 5.00000E-01 5.50000E+00
 -1       250 5.00000E-01 2.50000E-01 6.00000E+00
 -1       251 2.50000E-01 5.00000E-01 6.00000E+00
 -1       252 5.00000E-01 5.00000E-01 6.00000E+00
 -1       253 7.50000E-01 5.00000E-01 6.00000E+00
 -1       254 5.00000E-01 7.50000E-01 6.00000E+00
 -3
    3C                            24                                     1
 -1         1    4    0    1
 -2         1        10        95        19        61       105       222       192         9        93
 -2        94        20        62       103       219       190       104       220       221       193
 -1         2    4    0    1
 -2        10         2        13        95       105        34       134       222        11        12
 -2        96        93       103        33       132       219       106       133       223       220
 -1         3    4    0    1
 -2        19        95        16         4       192       222       163        79        94        97
 -2        17        18       190       219       161        78       221       224       164       191
 -1         4    4    0    1
 -2        95        13         3        16       222       134        64       163        96        14
 -2        15        97       219       132        63       161       223       135       162       224
 -1         5    4    0    1
 -2        61       105       222       192        59       109       228       196       104       220
 -2       221       193        60       107       225       194       108       226       227       197
 -1         6    4    0    1
 -2       105        34       134       222       109        36       138       228       106       133
 -2       223       220       107        35       136       225       110       137       229       226
 -1         7    4    0    1
 -2       192       222       163        79       196       228       167        81       221       224
 -2       164       191       194       225       165        80       227       230       168       195
 -1         8    4    0    1
 -2       222       134        64       163       228       138        66       167       223       135
 -2       162       224       225       136        65       165       229       139       166       230
 -1         9    4    0    1
 -2        59       109       228       196        57       113       234       200       108       226
 -2       227       197        58       111       231       198       112       232       233       201
 -1        10    4    0    1
 -2       109        36       138       228       113        38       142       234       110       137
 -2       229       226       111        37       140       231       114       141       235       232
 -1        11    4    0    1
 -2       196       228       167        81       200       234       171        83       227       230
 -2       168       195       198       231       169        82       233       236       172       199
 -1        12    4    0    1
 -2       228       138        66       167       234       142        68       171       229       139
 -2       166       230       231       140        67       169       235       143       170       236
 -1        13    4    0    1
 -2        57       113       234       200        55       117       240       204       112       232
 -2       233       201        56       115       237       202       116       238       239       205
 -1        14    4    0    1
 -2       113        38       142       234       117        40       146       240       114       141
 -2       235       232       115        39       144       237       118       145       241       238
 -1        15    4    0    1
 -2       200       234       171        83       204       240       175        85       233       236
 -2       172       199       202       237       173        84       239       242       176       203
 -1        16    4    0    1
 -2       234       142        68       171       240       146        70       175       235       143
 -2       170       236       237       144        69       173       241       147       174       242
 -1        17    4    0    1
 -2        55       117       240       204        53       121       246       208       116       238
 -2       239       205        54       119       243       206       120       244       245       209
 -1        18    4    0    1
 -2       117        40       146       240       121        42       150       246       118       145
 -2       241       238       119        41       148       243       122       149       247       244
 -1        19    4    0    1
 -2       204       240       175        85       208       246       179        87       239       242
 -2       176       203       206       243       177        86       245       248       180       207
 -1        20    4    0    1
 -2       240       146        70       175       246       150        72       179       241       147
 -2       174       242       243       148        71       177       247       151       178       248
 -1        21    4    0    1
 -2        53       121       246       208        51       125       252       212       120       244
 -2       245       209        52       123       249       210       124       250       251       213
 -1        22    4    0    1
 -2       121        42       150       246       125        44       154       252       122       149
 -2       247       244       123        43       152       249       126       153       253       250
 -1        23    4    0    1
 -2       208       246       179        87       212       252       183        89       245       248
 -2       180       207       210       249       181        88       251       254       184       211
 -1        24    4    0    1
 -2       246       150        72       179       252       154        74       183       247       151
 -2       178       248       249       152        73       181       253       155       182       254
 -3
    1PSTEP                         1           1           1          
  100CL  101 5.00000E-03         201                     1    1           1
 -4  DISP        4    1
 -5  D1          1    2    1    0
 -5  D2          1    2    2    0
 -5  D3          1    2    3    0
 -5  ALL         1    2    0    0    1ALL
 -1         1 0.00000E+00 0.00000E+00 0.00000E+00
 -1         2 0.00000E+00 0.00000E+00 0.00000E+00
 -1         3 0.00000E+00 0.00000E+00 0.00000E+00
 -1         4 0.00000E+00 0.00000E+00 0.00000E+00
 -1         9 0.00000E+00 0.00000E+00 0.00000E+00
 -1        10 0.00000E+00 0.00000E+00 0.00000E+00
 -1        11 0.00000E+00 0.00000E+00 0.00000E+00
 -1        12 0.00000E+00 0.00000E+00 0.00000E+00
 -1        13 0.00000E+00 0.00000E+00 0.00000E+00
 -1        14 0.00000E+00 0.00000E+00 0.00000E+00
 -1        15 0.00000E+00 0.00000E+00 0.00000E+00
 -1        16 0.00000E+00 0.00000E+00 0.00000E+00
 -1        17 0.00000E+00 0.00000E+00 0.00000E+00
 -1        18 0.00000E+00 0.00000E+00 0.00000E+00
 -1        19 0.00000E+00 0.00000E+00 0.00000E+00
 -1        20 0.00000E+00 0.00000E+00 0.00000E+00
 -1        33 6.38196E-04-1.55656E-03-2.04503E-03
 -1        34 3.12998E-04-4.81919E-03-3.74380E-03
 -1        35 2.57032E-04-9.70892E-03-4.83950E-03
 -1        36 8.05511E-05-1.52851E-02-5.40989E-03
 -1        37-5.30572E-05-2.11217E-02-5.47832E-03
 -1        38-2.12916E-04-2.69501E-02-5.19157E-03
 -1        39-4.27553E-04-3.19608E-02-3.84868E-03
 -1        40-4.33140E-04-3.54391E-02-2.09650E-03
 -1        41-4.46101E-04-3.58181E-02-6.39615E-04
 -1        42-6.15607E-04-3.74128E-02-1.48097E-03
 -1        43 6.17610E-04-3.47323E-02 8.52730E-04
 -1        44-6.00180E-04-3.46552E-02 4.48321E-03
 -1        51 5.97890E-04-3.46559E-02 4.48501E-03
 -1        52-6.20994E-04-3.47321E-02 8.53930E-04
 -1        53 6.11107E-04-3.74128E-02-1.48061E-03
 -1        54 4.41764E-04-3.58180E-02-6.39540E-04
 -1        55 4.28760E-04-3.54391E-02-2.09667E-03
 -1        56 4.23624E-04-3.19607E-02-3.84907E-03
 -1        57 2.09501E-04-2.69501E-02-5.19215E-03
 -1        58 5.03688E-05-2.11216E-02-5.47898E-03
 -1        59-8.25141E-05-1.52851E-02-5.41056E-03
 -1        60-2.58281E-04-9.70895E-03-4.84010E-03
 -1        61-3.13624E-04-4.81923E-03-3.74428E-03
 -1        62-6.38399E-04-1.55664E-03-2.04529E-03
 -1        63-6.26617E-04-1.53931E-03 2.01090E-03
 -1        64-3.11974E-04-4.81362E-03 3.67049E-03
 -1        65-2.34854E-04-9.70423E-03 4.73677E-03
 -1        66-8.03036E-05-1.53499E-02 5.27305E-03
 -1        67 4.88625E-05-2.10244E-02 5.30938E-03
 -1        68 1.44564E-04-2.69557E-02 4.93998E-03
 -1        69 5.84117E-04-3.20665E-02 3.58229E-03
 -1        70 6.56798E-04-3.63501E-02 1.84493E-03
 -1        71-5.45250E-05-3.45995E-02 3.33198E-04
 -1        72-1.04281E-03-3.47927E-02 7.88442E-04
 -1        73 2.01841E-03-3.88734E-02-1.68437E-03
 -1        74 3.17185E-03-4.40953E-02-4.94737E-03
 -1        78 6.26414E-04-1.53923E-03 2.01064E-03
 -1        79 3.11348E-04-4.81358E-03 3.67002E-03
 -1        80 2.33605E-04-9.70420E-03 4.73616E-03
 -1        81 7.83404E-05-1.53499E-02 5.27238E-03
 -1        82-5.15506E-05-2.10244E-02 5.30872E-03
 -1        83-1.47980E-04-2.69557E-02 4.93940E-03
 -1        84-5.88044E-04-3.20666E-02 3.58189E-03
 -1        85-6.61178E-04-3.63502E-02 1.84477E-03
 -1        86 5.01895E-05-3.45996E-02 3.33272E-04
 -1        87 1.03829E-03-3.47926E-02 7.88793E-04
 -1        88-2.02179E-03-3.88736E-02-1.68317E-03
 -1        89-3.17412E-03-4.40946E-02-4.94555E-03
 -1        93 0.00000E+00 0.00000E+00 0.00000E+00
 -1        94 0.00000E+00 0.00000E+00 0.00000E+00
 -1        95 0.00000E+00 0.00000E+00 0.00000E+00
 -1        96 0.00000E+00 0.00000E+00 0.00000E+00
 -1        97 0.00000E+00 0.00000E+00 0.00000E+00
 -1       103-7.80284E-08-1.81938E-03-2.00722E-03
 -1       104-1.56548E-04-5.01353E-03-3.80331E-03
 -1       105-3.08023E-07-5.03882E-03-3.82964E-03
 -1       106 1.55936E-04-5.01351E-03-3.80309E-03
 -1       107-6.15569E-07-9.80982E-03-4.86700E-03
 -1       108-3.40041E-05-1.53073E-02-5.44751E-03
 -1       109-9.75152E-07-1.54138E-02-5.43668E-03
 -1       110 3.20487E-05-1.53073E-02-5.44718E-03
 -1       111-1.35415E-06-2.10330E-02-5.51651E-03
 -1       112 7.34145E-05-2.71909E-02-5.21371E-03
 -1       113-1.68879E-06-2.71235E-02-5.22959E-03
 -1       114-7.68190E-05-2.71909E-02-5.21344E-03
 -1       115-1.99737E-06-3.15781E-02-3.93371E-03
 -1       116 3.28018E-04-3.52049E-02-2.04098E-03
 -1       117-2.12979E-06-3.64292E-02-1.83266E-03
 -1       118-3.32335E-04-3.52049E-02-2.04089E-03
 -1       119-2.26656E-06-3.55508E-02-6.58361E-04
 -1       120-7.23442E-05-3.91164E-02-1.12735E-03
 -1       121-2.02799E-06-3.76558E-02-1.17727E-03
 -1       122 6.80086E-05-3.91164E-02-1.12764E-03
 -1       123-1.85763E-06-3.48402E-02-2.51999E-04
 -1       124 1.49026E-03-2.96631E-02 4.29628E-03
 -1       125-6.33523E-07-3.58872E-02 4.48567E-03
 -1       126-1.49193E-03-2.96627E-02 4.29579E-03
 -1       132 7.06099E-06-1.18679E-03-1.58858E-05
 -1       133 1.61024E-04-4.69661E-03-1.77996E-03
 -1       134 8.56912E-06-4.74378E-03-2.85751E-05
 -1       135-1.54269E-04-4.69768E-03 1.71217E-03
 -1       136-2.23572E-06-9.53351E-03-5.55142E-05
 -1       137 4.70780E-05-1.52662E-02-2.68599E-03
 -1       138 4.19481E-06-1.51883E-02-7.32359E-05
 -1       139-3.76304E-05-1.52831E-02 2.55216E-03
 -1       140 1.55999E-05-2.12625E-02-9.15869E-05
 -1       141-1.06238E-04-2.68050E-02-2.44322E-03
 -1       142 5.34427E-05-2.68705E-02-5.10323E-05
 -1       143 1.11326E-04-2.68669E-02 2.24208E-03
 -1       144-9.05589E-05-3.22012E-02-1.26854E-04
 -1       145-2.05401E-04-3.56301E-02-1.32031E-03
 -1       146-1.31783E-04-3.46614E-02-2.47649E-04
 -1       147 1.79376E-04-3.58713E-02 1.00709E-03
 -1       148 2.67961E-04-3.68195E-02-2.37279E-04
 -1       149-3.29095E-04-3.42272E-02-4.68516E-04
 -1       150 8.47571E-04-3.45002E-02-2.06876E-05
 -1       151 2.80449E-04-3.35522E-02-1.57337E-06
 -1       152-1.26730E-03-3.72153E-02 1.14370E-04
 -1       153 6.94074E-04-3.63738E-02 1.91091E-03
 -1       154-1.20107E-03-2.50527E-02-2.10120E-04
 -1       155-6.49885E-04-3.88961E-02-2.38245E-03
 -1       161-7.82680E-08-1.80731E-03 1.96992E-03
 -1       162-1.54001E-04-5.00707E-03 3.73584E-03
 -1       163-3.08162E-07-5.01429E-03 3.75748E-03
 -1       164 1.53389E-04-5.00705E-03 3.73562E-03
 -1       165-6.15693E-07-9.81039E-03 4.76631E-03
 -1       166-4.04693E-05-1.52809E-02 5.30637E-03
 -1       167-9.75007E-07-1.53731E-02 5.32850E-03
 -1       168 3.85138E-05-1.52809E-02 5.30604E-03
 -1       169-1.35425E-06-2.10417E-02 5.30900E-03
 -1       170 7.36572E-05-2.71898E-02 5.01320E-03
 -1       171-1.68839E-06-2.68104E-02 4.96913E-03
 -1       172-7.70616E-05-2.71898E-02 5.01292E-03
 -1       173-1.99743E-06-3.17842E-02 3.68970E-03
 -1       174 3.12140E-04-3.46219E-02 1.71041E-03
 -1       175-2.12830E-06-3.56208E-02 1.72667E-03
 -1       176-3.16456E-04-3.46220E-02 1.71032E-03
 -1       177-2.26715E-06-3.51215E-02 2.07561E-04
 -1       178-4.47355E-04-4.00852E-02 7.14618E-04
 -1       179-2.02713E-06-3.57996E-02 4.82146E-04
 -1       180 4.43018E-04-4.00852E-02 7.14905E-04
 -1       181-1.85834E-06-3.68365E-02-6.09154E-04
 -1       182 1.14149E-03-2.56393E-02-4.71279E-03
 -1       183-6.17615E-07-4.35306E-02-4.76499E-03
 -1       184-1.14315E-03-2.56390E-02-4.71230E-03
 -1       190-7.29642E-06-1.18679E-03-1.61411E-05
 -1       191 1.53617E-04-4.69766E-03 1.71169E-03
 -1       192-9.22836E-06-4.74378E-03-2.90622E-05
 -1       193-1.61675E-04-4.69663E-03-1.78044E-03
 -1       194 9.79034E-07-9.53351E-03-5.61211E-05
 -1       195 3.56523E-05-1.52831E-02 2.55149E-03
 -1       196-6.18591E-06-1.51883E-02-7.39149E-05
 -1       197-4.90559E-05-1.52662E-02-2.68667E-03
 -1       198-1.82617E-05-2.12625E-02-9.22488E-05
 -1       199-1.14754E-04-2.68670E-02 2.24149E-03
 -1       200-5.68970E-05-2.68705E-02-5.16460E-05
 -1       201 1.02811E-04-2.68050E-02-2.44381E-03
 -1       202 8.66903E-05-3.22012E-02-1.27225E-04
 -1       203-1.83813E-04-3.58713E-02 1.00689E-03
 -1       204 1.27297E-04-3.46614E-02-2.47817E-04
 -1       205 2.00967E-04-3.56301E-02-1.32050E-03
 -1       206-2.72112E-04-3.68195E-02-2.37239E-04
 -1       207-2.85067E-04-3.35522E-02-1.29890E-06
 -1       208-8.52428E-04-3.45002E-02-2.06642E-05
 -1       209 3.24473E-04-3.42272E-02-4.68238E-04
 -1       210 1.26410E-03-3.72153E-02 1.15917E-04
 -1       211 6.46725E-04-3.88957E-02-2.38074E-03
 -1       212 1.19744E-03-2.50527E-02-2.07938E-04
 -1       213-6.97199E-04-3.63742E-02 1.91261E-03
 -1       219-9.51684E-08-1.44460E-03-1.43036E-05
 -1       220-3.16538E-07-4.89488E-03-1.83672E-03
 -1       221-4.47009E-06-4.91015E-03-3.65136E-05
 -1       222-3.15634E-07-4.92413E-03-3.80473E-05
 -1       223 3.83441E-06-4.91015E-03-3.62829E-05
 -1       224-3.16610E-07-4.88114E-03 1.76701E-03
 -1       225-6.25733E-07-9.65522E-03-5.13521E-05
 -1       226-9.70348E-07-1.53415E-02-2.72934E-03
 -1       227-4.64304E-06-1.52005E-02-6.89392E-05
 -1       228-9.65598E-07-1.52190E-02-8.45880E-05
 -1       229 2.68393E-06-1.52005E-02-6.86051E-05
 -1       230-9.70286E-07-1.53250E-02 2.57719E-03
 -1       231-1.35880E-06-2.12486E-02-7.48697E-05
 -1       232-1.66833E-06-2.68847E-02-2.49398E-03
 -1       233-2.38655E-05-2.68426E-02-1.27298E-04
 -1       234-1.65205E-06-2.68133E-02-1.40002E-04
 -1       235 2.04755E-05-2.68426E-02-1.27020E-04
 -1       236-1.66808E-06-2.67129E-02 2.27120E-03
 -1       237-2.00020E-06-3.19254E-02-9.36516E-05
 -1       238-2.08152E-06-3.61170E-02-1.24129E-03
 -1       239 5.55189E-05-3.45382E-02-1.44210E-04
 -1       240-2.04457E-06-3.47772E-02-2.00806E-04
 -1       241-5.97973E-05-3.45382E-02-1.44060E-04
 -1       242-2.08106E-06-3.57431E-02 8.84204E-04
 -1       243-2.29626E-06-3.65629E-02-2.12662E-04
 -1       244-1.93934E-06-3.52109E-02-2.05716E-04
 -1       245-3.39166E-04-3.61219E-02-2.62214E-04
 -1       246-1.86280E-06-3.65174E-02-1.98073E-04
 -1       247 3.34810E-04-3.61219E-02-2.62563E-04
 -1       248-1.93731E-06-3.43725E-02-1.00763E-04
 -1       249-1.91872E-06-3.52342E-02-1.34639E-04
 -1       250-5.18670E-07-4.08009E-02 1.74429E-03
 -1       251 3.01292E-04-2.57208E-02-1.05699E-04
 -1       252-4.28349E-07-3.12240E-02-1.60178E-04
 -1       253-3.03470E-04-2.57208E-02-1.05537E-04
 -1       254-5.19224E-07-4.41080E-02-2.54076E-03
 -3
    1PSTEP                         2           2           1          
  100CL  102 1.00000E-02         201                     1    2           1
 -4  DISP        4    1
 -5  D1          1    2    1    0
 -5  D2          1    2    2    0
 -5  D3          1    2    3    0
 -5  ALL         1    2    0    0    1ALL
 -1         1 0.00000E+00 0.00000E+00 0.00000E+00
 -1         2 0.00000E+00 0.00000E+00 0.00000E+00
 -1         3 0.00000E+00 0.00000E+00 0.00000E+00
 -1         4 0.00000E+00 0.00000E+00 0.00000E+00
 -1         9 0.00000E+00 0.00000E+00 0.00000E+00
 -1        10 0.00000E+00 0.00000E+00 0.00000E+00
 -1        11 0.00000E+00 0.00000E+00 0.00000E+00
 -1        12 0.00000E+00 0.00000E+00 0.00000E+00
 -1        13 0.00000E+00 0.00000E+00 0.00000E+00
 -1        14 0.00000E+00 0.00000E+00 0.00000E+00
 -1        15 0.00000E+00 0.00000E+00 0.00000E+00
 -1        16 0.00000E+00 0.00000E+00 0.00000E+00
 -1        17 0.00000E+00 0.00000E+00 0.00000E+00
 -1        18 0.00000E+00 0.00000E+00 0.00000E+00
 -1        19 0.00000E+00 0.00000E+00 0.00000E+00
 -1        20 0.00000E+00 0.00000E+00 0.00000E+00
 -1        33-3.19983E-04 7.92022E-04 1.03037E-03
 -1        34-1.54743E-04 2.44897E-03 1.87793E-03
 -1        35-1.27447E-04 4.92730E-03 2.42801E-03
 -1        36-4.50000E-05 7.74585E-03 2.70151E-03
 -1        37 4.39545E-05 1.07229E-02 2.71956E-03
 -1        38 1.36531E-04 1.36818E-02 2.50388E-03
 -1        39 2.05720E-04 1.60930E-02 1.85282E-03
 -1        40 1.36306E-04 1.78370E-02 9.25471E-04
 -1        41 3.61638E-04 1.81923E-02 2.09341E-04
 -1        42 4.69281E-04 1.87430E-02 1.08616E-04
 -1        43-4.33910E-04 1.69408E-02-7.87948E-04
 -1        44-1.62041E-03 1.59924E-02-2.34097E-03
 -1        51 1.62130E-03 1.59915E-02-2.34087E-03
 -1        52 4.35225E-04 1.69401E-02-7.88070E-04
 -1        53-4.67390E-04 1.87418E-02 1.08600E-04
 -1        54-3.59983E-04 1.81915E-02 2.09291E-04
 -1        55-1.34760E-04 1.78362E-02 9.25474E-04
 -1        56-2.04372E-04 1.60924E-02 1.85290E-03
 -1        57-1.35321E-04 1.36812E-02 2.50399E-03
 -1        58-4.29941E-05 1.07224E-02 2.71969E-03
 -1        59 4.57367E-05 7.74549E-03 2.70163E-03
 -1        60 1.27949E-04 4.92705E-03 2.42813E-03
 -1        61 1.55037E-04 2.44881E-03 1.87802E-03
 -1        62 3.20101E-04 7.91960E-04 1.03042E-03
 -1        63 3.20002E-04 7.91914E-04-1.03027E-03
 -1        64 1.54882E-04 2.44893E-03-1.87770E-03
 -1        65 1.27408E-04 4.92748E-03-2.42768E-03
 -1        66 4.52690E-05 7.74640E-03-2.70106E-03
 -1        67-4.26423E-05 1.07215E-02-2.71898E-03
 -1        68-1.34514E-04 1.36806E-02-2.50288E-03
 -1        69-2.09458E-04 1.60974E-02-1.85171E-03
 -1        70-1.41506E-04 1.78479E-02-9.24429E-04
 -1        71-3.42457E-04 1.81688E-02-2.08335E-04
 -1        72-4.34371E-04 1.87021E-02-1.05829E-04
 -1        73 3.50463E-04 1.70359E-02 7.93407E-04
 -1        74 1.48607E-03 1.61781E-02 2.34368E-03
 -1        78-3.20042E-04 7.91822E-04-1.03022E-03