    1C
    1UUSER                                                              
    1UDATE              18.july.2018                                    
    1UTIME              00:26:58                                        
    1UHOST                                                              
    1UPGM               CalculiX                                        
    1UVERSION           Version 2.13                             
    1UCOMPILETIME       jue jun 14 00:40:39 CEST 2018                    
    1UDIR                                                               
    1UDBN                                                               
    1UMAT    1EL                                                        
    2C                            81                                     1
 -1         5 0.00000E+00 0.00000E+00 8.00000E+00
 -1         6 1.00000E+00 0.00000E+00 8.00000E+00
 -1         7 1.00000E+00 1.00000E+00 8.00000E+00
 -1         8 0.00000E+00 1.00000E+00 8.00000E+00
 -1        21 2.50000E-01 0.00000E+00 8.00000E+00
 -1        22 5.00000E-01 0.00000E+00 8.00000E+00
 -1        23 7.50000E-01 0.00000E+00 8.00000E+00
 -1        24 1.00000E+00 2.50000E-01 8.00000E+00
 -1        25 1.00000E+00 5.00000E-01 8.00000E+00
 -1        26 1.00000E+00 7.50000E-01 8.00000E+00
 -1        27 7.50000E-01 1.00000E+00 8.00000E+00
 -1        28 5.00000E-01 1.00000E+00 8.00000E+00
 -1        29 2.50000E-01 1.00000E+00 8.00000E+00
 -1        30 0.00000E+00 7.50000E-01 8.00000E+00
 -1        31 0.00000E+00 5.00000E-01 8.00000E+00
 -1        32 0.00000E+00 2.50000E-01 8.00000E+00
 -1        44 1.00000E+00 0.00000E+00 6.00000E+00
 -1        45 1.00000E+00 0.00000E+00 6.50000E+00
 -1        46 1.00000E+00 0.00000E+00 7.00000E+00
 -1        47 1.00000E+00 0.00000E+00 7.50000E+00
 -1        48 0.00000E+00 0.00000E+00 7.50000E+00
 -1        49 0.00000E+00 0.00000E+00 7.00000E+00
 -1        50 0.00000E+00 0.00000E+00 6.50000E+00
 -1        51 0.00000E+00 0.00000E+00 6.00000E+00
 -1        74 1.00000E+00 1.00000E+00 6.00000E+00
 -1        75 1.00000E+00 1.00000E+00 6.50000E+00
 -1        76 1.00000E+00 1.00000E+00 7.00000E+00
 -1        77 1.00000E+00 1.00000E+00 7.50000E+00
 -1        89 0.00000E+00 1.00000E+00 6.00000E+00
 -1        90 0.00000E+00 1.00000E+00 6.50000E+00
 -1        91 0.00000E+00 1.00000E+00 7.00000E+00
 -1        92 0.00000E+00 1.00000E+00 7.50000E+00
 -1        98 5.00000E-01 2.50000E-01 8.00000E+00
 -1        99 2.50000E-01 5.00000E-01 8.00000E+00
 -1       100 5.00000E-01 5.00000E-01 8.00000E+00
 -1       101 7.50000E-01 5.00000E-01 8.00000E+00
 -1       102 5.00000E-01 7.50000E-01 8.00000E+00
 -1       124 2.50000E-01 0.00000E+00 6.00000E+00
 -1       125 5.00000E-01 0.00000E+00 6.00000E+00
 -1       126 7.50000E-01 0.00000E+00 6.00000E+00
 -1       127 5.00000E-01 0.00000E+00 6.50000E+00
 -1       128 2.50000E-01 0.00000E+00 7.00000E+00
 -1       129 5.00000E-01 0.00000E+00 7.00000E+00
 -1       130 7.50000E-01 0.00000E+00 7.00000E+00
 -1       131 5.00000E-01 0.00000E+00 7.50000E+00
 -1       153 1.00000E+00 2.50000E-01 6.00000E+00
 -1       154 1.00000E+00 5.00000E-01 6.00000E+00
 -1       155 1.00000E+00 7.50000E-01 6.00000E+00
 -1       156 1.00000E+00 5.00000E-01 6.50000E+00
 -1       157 1.00000E+00 2.50000E-01 7.00000E+00
 -1       158 1.00000E+00 5.00000E-01 7.00000E+00
 -1       159 1.00000E+00 7.50000E-01 7.00000E+00
 -1       160 1.00000E+00 5.00000E-01 7.50000E+00
 -1       182 7.50000E-01 1.00000E+00 6.00000E+00
 -1       183 5.00000E-01 1.00000E+00 6.00000E+00
 -1       184 2.50000E-01 1.00000E+00 6.00000E+00
 -1       185 5.00000E-01 1.00000E+00 6.50000E+00
 -1       186 7.50000E-01 1.00000E+00 7.00000E+00
 -1       187 5.00000E-01 1.00000E+00 7.00000E+00
 -1       188 2.50000E-01 1.00000E+00 7.00000E+00
 -1       189 5.00000E-01 1.00000E+00 7.50000E+00
 -1       211 0.00000E+00 7.50000E-01 6.00000E+00
 -1       212 0.00000E+00 5.00000E-01 6.00000E+00
 -1       213 0.00000E+00 2.50000E-01 6.00000E+00
 -1       214 0.00000E+00 5.00000E-01 6.50000E+00
 -1       215 0.00000E+00 7.50000E-01 7.00000E+00
 -1       216 0.00000E+00 5.00000E-01 7.00000E+00
 -1       217 0.00000E+00 2.50000E-01 7.00000E+00
 -1       218 0.00000E+00 5.00000E-01 7.50000E+00
 -1       250 5.00000E-01 2.50000E-01 6.00000E+00
 -1       251 2.50000E-01 5.00000E-01 6.00000E+00
 -1       252 5.00000E-01 5.00000E-01 6.00000E+00
 -1       253 7.50000E-01 5.00000E-01 6.00000E+00
 -1       254 5.00000E-01 7.50000E-01 6.00000E+00
 -1       255 5.00000E-01 5.00000E-01 6.50000E+00
 -1       256 5.00000E-01 2.50000E-01 7.00000E+00
 -1       257 2.50000E-01 5.00000E-01 7.00000E+00
 -1       258 5.00000E-01 5.00000E-01 7.00000E+00
 -1       259 7.50000E-01 5.00000E-01 7.00000E+00
 -1       260 5.00000E-01 7.50000E-01 7.00000E+00
 -1       261 5.00000E-01 5.00000E-01 7.50000E+00
 -3
    3C                             8                                     1
 -1        25    4    0    1
 -2        51       125       252       212        49       129       258       216       124       250
 -2       251       213        50       127       255       214       128       256       257       217
 -1        26    4    0    1
 -2       125        44       154       252       129        46       158       258       126       153
 -2       253       250       127        45       156       255       130       157       259       256
 -1        27    4    0    1
 -2       212       252       183        89       216       258       187        91       251       254
 -2       184       211       214       255       185        90       257       260       188       215
 -1        28    4    0    1
 -2       252       154        74       183       258       158        76       187       253       155
 -2       182       254       255       156        75       185       259       159       186       260
 -1        29    4    0    1
 -2        49       129       258       216         5        22       100        31       128       256
 -2       257       217        48       131       261       218        21        98        99        32
 -1        30    4    0    1
 -2       129        46       158       258        22         6        25       100       130       157
 -2       259       256       131        47       160       261        23        24       101        98
 -1        31    4    0    1
 -2       216       258       187        91        31       100        28         8       257       260
 -2       188       215       218       261       189        92        99       102        29        30
 -1        32    4    0    1
 -2       258       158        76       187       100        25         7        28       259       159
 -2       186       260       261       160        77       189       101        26        27       102
 -3
    1PSTEP                         1           1           1          
  100CL  101 5.00000E-03          81                     1    1           1
 -4  DISP        4    1
 -5  D1          1    2    1    0
 -5  D2          1    2    2    0
 -5  D3          1    2    3    0
 -5  ALL         1    2    0    0    1ALL
 -1         5 0.00000E+00 0.00000E+00 0.00000E+00
 -1         6 0.00000E+00 0.00000E+00 0.00000E+00
 -1         7 0.00000E+00 0.00000E+00 0.00000E+00
 -1         8 0.00000E+00 0.00000E+00 0.00000E+00
 -1        21 0.00000E+00 0.00000E+00 0.00000E+00
 -1        22 0.00000E+00 0.00000E+00 0.00000E+00
 -1        23 0.00000E+00 0.00000E+00 0.00000E+00
 -1        24 0.00000E+00 0.00000E+00 0.00000E+00
 -1        25 0.00000E+00 0.00000E+00 0.00000E+00
 -1        26 0.00000E+00 0.00000E+00 0.00000E+00
 -1        27 0.00000E+00 0.00000E+00 0.00000E+00
 -1        28 0.00000E+00 0.00000E+00 0.00000E+00
 -1        29 0.00000E+00 0.00000E+00 0.00000E+00
 -1        30 0.00000E+00 0.00000E+00 0.00000E+00
 -1        31 0.00000E+00 0.00000E+00 0.00000E+00
 -1        32 0.00000E+00 0.00000E+00 0.00000E+00
 -1        44-2.92486E-04-2.11513E-03 1.72025E-05
 -1        45-1.57198E-04-1.76240E-03 2.39504E-04
 -1        46 6.60083E-05-1.29169E-03 6.02974E-04
 -1        47 5.90881E-05-5.24971E-04 4.49046E-04
 -1        48-5.90791E-05-5.24971E-04 4.49037E-04
 -1        49-6.59720E-05-1.29171E-03 6.02956E-04
 -1        50 1.57246E-04-1.76240E-03 2.39475E-04
 -1        51 2.92583E-04-2.11518E-03 1.71804E-05
 -1        74 7.24415E-04-2.75201E-03-8.32279E-05
 -1        75 3.70287E-04-2.10199E-03-3.71963E-04
 -1        76-1.81528E-04-1.06527E-03-3.95199E-04
 -1        77-1.73070E-04-4.16755E-04-4.15573E-04
 -1        89-7.24372E-04-2.75206E-03-8.32493E-05
 -1        90-3.70247E-04-2.10200E-03-3.71997E-04
 -1        91 1.81549E-04-1.06528E-03-3.95215E-04
 -1        92 1.73075E-04-4.16759E-04-4.15582E-04
 -1        98 0.00000E+00 0.00000E+00 0.00000E+00
 -1        99 0.00000E+00 0.00000E+00 0.00000E+00
 -1       100 0.00000E+00 0.00000E+00 0.00000E+00
 -1       101 0.00000E+00 0.00000E+00 0.00000E+00
 -1       102 0.00000E+00 0.00000E+00 0.00000E+00
 -1       124 3.82420E-05-1.29446E-03 1.09804E-04
 -1       125 2.36248E-08-1.92898E-03-1.50645E-04
 -1       126-3.81672E-05-1.29443E-03 1.09798E-04
 -1       127 3.49818E-08-1.68458E-03 2.92428E-04
 -1       128-2.57461E-08-1.44286E-03 5.05857E-04
 -1       129 7.66504E-09-1.24615E-03 4.82067E-04
 -1       130 5.06909E-08-1.44285E-03 5.05869E-04
 -1       131 5.62450E-09-5.67450E-04 4.32031E-04
 -1       153 6.00246E-05-2.44022E-03 9.81717E-05
 -1       154 1.27952E-04-1.28691E-03-2.02890E-04
 -1       155-2.20563E-04-2.46359E-03 4.32198E-05
 -1       156 1.77805E-05-1.63741E-03-1.19770E-05
 -1       157 2.03386E-06-1.11683E-03 2.04155E-04
 -1       158-1.58560E-05-1.32190E-03-1.22711E-05
 -1       159 7.61432E-05-1.09390E-03-1.89885E-04
 -1       160-2.50860E-06-5.99393E-04 4.95298E-06
 -1       182 4.95737E-04-1.09208E-03 3.41928E-05
 -1       183 2.04680E-08-2.22895E-03-2.78580E-04
 -1       184-4.95692E-04-1.09210E-03 3.41768E-05
 -1       185 2.12625E-08-1.73008E-03-3.66692E-04
 -1       186-1.30471E-04-1.59276E-03-5.32606E-04
 -1       187 7.72332E-09-1.45388E-03-5.24662E-04
 -1       188 1.30488E-04-1.59276E-03-5.32614E-04
 -1       189 2.75006E-09-6.15566E-04-4.15458E-04
 -1       211 2.20609E-04-2.46362E-03 4.32157E-05
 -1       212-1.27906E-04-1.28692E-03-2.02933E-04
 -1       213-5.99491E-05-2.44025E-03 9.81345E-05
 -1       214-1.77149E-05-1.63743E-03-1.20015E-05
 -1       215-7.61253E-05-1.09391E-03-1.89911E-04
 -1       216 1.58699E-05-1.32189E-03-1.22961E-05
 -1       217-2.00909E-06-1.11684E-03 2.04134E-04
 -1       218 2.51765E-06-5.99396E-04 4.93900E-06
 -1       250 4.59462E-08-2.25482E-03-1.03267E-04
 -1       251-1.66234E-04-1.35633E-03-9.81084E-05
 -1       252 7.03335E-08-1.47023E-03 2.10640E-04
 -1       253 1.66325E-04-1.35633E-03-9.80575E-05
 -1       254 4.62901E-08-2.60966E-03-1.57762E-04
 -1       255 1.69629E-08-1.55892E-03 8.91485E-06
 -1       256 1.51523E-08-1.16693E-03 2.16870E-04
 -1       257 2.76383E-05-1.35725E-03 5.39988E-06
 -1       258 2.20807E-08-1.37393E-03-3.71188E-05
 -1       259-2.76087E-05-1.35725E-03 5.40532E-06
 -1       260 1.47974E-08-1.20497E-03-2.27461E-04
 -1       261 2.09937E-09-6.27293E-04-9.52694E-06
 -3
    1PSTEP                         2           2           1          
  100CL  102 1.00000E-02          81                     1    2           1
 -4  DISP        4    1
 -5  D1          1    2    1    0
 -5  D2          1    2    2    0
 -5  D3          1    2    3    0
 -5  ALL         1    2    0    0    1ALL
 -1         5 0.00000E+00 0.00000E+00 0.00000E+00
 -1         6 0.00000E+00 0.00000E+00 0.00000E+00
 -1         7 0.00000E+00 0.00000E+00 0.00000E+00
 -1         8 0.00000E+00 0.00000E+00 0.00000E+00
 -1        21 0.00000E+00 0.00000E+00 0.00000E+00
 -1        22 0.00000E+00 0.00000E+00 0.00000E+00
 -1        23 0.00000E+00 0.00000E+00 0.00000E+00
 -1        24 0.00000E+00 0.00000E+00 0.00000E+00
 -1        25 0.00000E+00 0.00000E+00 0.00000E+00
 -1        26 0.00000E+00 0.00000E+00 0.00000E+00
 -1        27 0.00000E+00 0.00000E+00 0.00000E+00
 -1        28 0.00000E+00 0.00000E+00 0.00000E+00
 -1        29 0.00000E+00 0.00000E+00 0.00000E+00
 -1        30 0.00000E+00 0.00000E+00 0.00000E+00
 -1        31 0.00000E+00 0.00000E+00 0.00000E+00
 -1        32 0.00000E+00 0.00000E+00 0.00000E+00
 -1        44 1.82961E-05 9.05448E-04-2.45984E-05
 -1        45 4.81315E-05 8.40989E-04-1.37415E-04
 -1        46 2.36490E-08 6.70772E-04-2.32617E-04
 -1        47-2.46467E-05 2.95337E-04-2.21813E-04
 -1        48 2.46399E-05 2.95341E-04-2.21795E-04
 -1        49-7.57272E-08 6.70766E-04-2.32570E-04
 -1        50-4.81482E-05 8.40958E-04-1.37395E-04
 -1        51-1.83427E-05 9.05299E-04-2.45130E-05
 -1        74-1.81358E-05 9.12153E-04 2.46122E-05
 -1        75-4.83669E-05 8.44321E-04 1.37088E-04
 -1        76-8.65892E-07 6.69562E-04 2.32183E-04
 -1        77 2.47783E-05 2.94329E-04 2.21893E-04
 -1        89 1.81566E-05 9.12336E-04 2.46588E-05
 -1        90 4.83349E-05 8.44352E-04 1.37098E-04
 -1        91 8.25899E-07 6.69570E-04 2.32238E-04
 -1        92-2.47852E-05 2.94325E-04 2.21914E-04
 -1        98 0.00000E+00 0.00000E+00 0.00000E+00
 -1        99 0.00000E+00 0.00000E+00 0.00000E+00
 -1       100 0.00000E+00 0.00000E+00 0.00000E+00
 -1       101 0.00000E+00 0.00000E+00 0.00000E+00
 -1       102 0.00000E+00 0.00000E+00 0.00000E+00
 -1       124-6.28645E-05 7.38160E-04-1.40204E-05
 -1       125 6.39258E-08 9.40418E-04-3.54702E-05
 -1       126 6.28881E-05 7.38202E-04-1.40581E-05
 -1       127-4.58658E-08 8.31568E-04-1.65454E-04
 -1       128 1.22630E-05 7.09700E-04-2.54880E-04
 -1       129 1.19768E-08 6.59019E-04-2.55476E-04
 -1       130-1.22726E-05 7.09708E-04-2.54906E-04
 -1       131-7.33811E-09 3.00162E-04-2.12323E-04
 -1       153 5.25559E-05 1.17276E-03-8.62493E-06
 -1       154 7.80123E-07 9.01685E-04 3.18063E-07
 -1       155-5.32740E-05 1.17877E-03 8.39541E-06
 -1       156 4.00809E-07 8.79543E-04 2.44046E-07
 -1       157-1.05674E-05 5.91542E-04-9.49242E-05
 -1       158-7.19067E-09 6.46046E-04 8.44394E-08
 -1       159 1.06057E-05 5.90434E-04 9.48214E-05
 -1       160-2.11797E-07 2.86442E-04-4.50135E-08
 -1       182-7.00262E-05 7.35350E-04 1.37609E-05
 -1       183 5.46260E-08 9.45146E-04 3.63822E-05
 -1       184 7.00738E-05 7.35412E-04 1.38240E-05
 -1       185-3.69254E-08 8.32889E-04 1.66125E-04
 -1       186 1.36244E-05 7.10875E-04 2.55010E-04
 -1       187 5.05824E-09 6.58725E-04 2.55607E-04
 -1       188-1.36350E-05 7.10884E-04 2.55030E-04
 -1       189-6.32385E-09 3.00079E-04 2.12213E-04
 -1       211 5.31711E-05 1.17885E-03 8.45723E-06
 -1       212-9.51066E-07 9.01691E-04 2.94613E-07
 -1       213-5.26953E-05 1.17270E-03-8.53550E-06
 -1       214-4.78418E-07 8.79548E-04 2.82345E-07
 -1       215-1.06315E-05 5.90441E-04 9.48443E-05
 -1       216-1.12214E-08 6.46043E-04 1.08190E-07
 -1       217 1.05365E-05 5.91533E-04-9.49062E-05
 -1       218 2.00385E-07 2.86442E-04-2.62137E-08
 -1       250-5.09032E-08 1.11175E-03-1.43697E-05
 -1       251-3.54192E-06 6.44465E-04 1.40219E-07
 -1       252-1.66511E-07 8.44220E-04-3.49910E-07
 -1       253 3.30561E-06 6.44463E-04 1.73724E-07
 -1       254-5.65864E-08 1.11135E-03 1.49459E-05
 -1       255-2.08375E-08 8.49557E-04-1.80675E-07
 -1       256-1.19813E-08 5.94834E-04-1.13084E-04
 -1       257 6.88325E-07 6.98667E-04 6.30530E-09
 -1       258-3.50072E-08 6.40131E-04 5.02773E-08
 -1       259-7.36470E-07 6.98668E-04-8.43928E-09
 -1       260-1.52514E-08 5.95197E-04 1.13189E-04
 -1       261-3.24212E-10 3.00805E-04 2.61070E-08
 -3
    1PSTEP                         3           3           1          
  100CL  103 1.50000E-02          81                     1    3           1
 -4  DISP        4    1
 -5  D1          1    2    1    0
 -5  D2          1    2    2    0
 -5  D3          1    2    3    0
 -5  ALL         1    2    0    0    1ALL
 -1         5 0.00000E+00 0.00000E+00 0.00000E+00
 -1         6 0.00000E+00 0.00000E+00 0.00000E+00
 -1         7 0.00000E+00 0.00000E+00 0.00000E+00
 -1         8 0.00000E+00 0.00000E+00 0.00000E+00
 -1        21 0.00000E+00 0.00000E+00 0.00000E+00
 -1        22 0.00000E+00 0.00000E+00 0.00000E+00
 -1        23 0.00000E+00 0.00000E+00 0.00000E+00
 -1        24 0.00000E+00 0.00000E+00 0.00000E+00
 -1        25 0.00000E+00 0.00000E+00 0.00000E+00
 -1        26 0.00000E+00 0.00000E+00 0.00000E+00
 -1        27 0.00000E+00 0.00000E+00 0.00000E+00
 -1        28 0.00000E+00 0.00000E+00 0.00000E+00
 -1        29 0.00000E+00 0.00000E+00 0.00000E+00
 -1        30 0.00000E+00 0.00000E+00 0.00000E+00
 -1        31 0.00000E+00 0.00000E+00 0.00000E+00
 -1        32 0.00000E+00 0.00000E+00 0.00000E+00
 -1        44-1.47022E-05-7.18309E-04 1.92201E-05
 -1        45-3.83260E-05-6.66657E-04 1.08524E-04
 -1        46-8.96136E-08-5.31060E-04 1.84223E-04
 -1        47 1.95278E-05-2.33777E-04 1.75693E-04
 -1        48-1.95264E-05-2.33781E-04 1.75686E-04
 -1        49 6.97265E-08-5.31058E-04 1.84204E-04
 -1        50 3.83271E-05-6.66655E-04 1.08576E-04
 -1        51 1.46594E-05-7.18393E-04 1.92914E-05
 -1        74 1.41092E-05-7.19579E-04-1.94096E-05
 -1        75 3.79845E-05-6.67342E-04-1.08788E-04
 -1        76 5.67649E-07-5.30637E-04-1.83745E-04
 -1        77-1.94753E-05-2.33638E-04-1.75609E-04
 -1        89-1.42519E-05-7.19570E-04-1.93357E-05
 -1        90-3.79658E-05-6.67341E-04-1.08735E-04
 -1        91-6.04111E-07-5.30644E-04-1.83771E-04
 -1        92 1.94761E-05-2.33635E-04-1.75619E-04
 -1        98 0.00000E+00 0.00000E+00 0.00000E+00
 -1        99 0.00000E+00 0.00000E+00 0.00000E+00
 -1       100 0.00000E+00 0.00000E+00 0.00000E+00
 -1       101 0.00000E+00 0.00000E+00 0.00000E+00
 -1       102 0.00000E+00 0.00000E+00 0.00000E+00
 -1       124 5.06258E-05-5.84206E-04 1.09915E-05
 -1       125 1.59385E-08-7.45368E-04 2.77428E-05
 -1       126-5.06338E-05-5.84167E-04 1.09726E-05
 -1       127-1.26334E-08-6.58732E-04 1.30778E-04
 -1       128-9.87087E-06-5.62159E-04 2.01757E-04
 -1       129 4.04018E-09-5.21684E-04 2.02139E-04
 -1       130 9.86591E-06-5.62161E-04 2.01761E-04
 -1       131-1.83324E-09-2.37781E-04 1.68195E-04
 -1       153-4.16296E-05-9.29350E-04 6.80616E-06
 -1       154-9.84760E-08-7.13866E-04-5.28922E-07
 -1       155 4.17765E-05-9.29749E-04-6.46864E-06
 -1       156 3.28161E-08-6.96549E-04-8.82671E-08
 -1       157 8.36505E-06-4.68356E-04 7.51426E-05
 -1       158-1.17092E-07-5.11528E-04-4.41679E-08
 -1       159-8.39703E-06-4.68241E-04-7.51557E-05
 -1       160 9.06726E-09-2.26936E-04 1.85620E-08
 -1       182 5.23978E-05-5.83767E-04-1.06372E-05
 -1       183 2.77907E-08-7.45767E-04-2.87235E-05
 -1       184-5.24436E-05-5.83770E-04-1.06885E-05
 -1       185-2.94834E-08-6.58697E-04-1.31014E-04
 -1       186-1.01290E-05-5.62255E-04-2.01786E-04
 -1       187 1.53203E-08-5.21760E-04-2.02238E-04
 -1       188 1.01270E-05-5.62258E-04-2.01779E-04
 -1       189-3.42777E-09-2.37778E-04-1.68140E-04
 -1       211-4.18726E-05-9.29756E-04-6.44531E-06
 -1       212 6.49618E-08-7.13884E-04-4.18768E-07
 -1       213 4.15865E-05-9.29397E-04 6.79801E-06
 -1       214-5.82079E-08-6.96556E-04-6.25795E-08
 -1       215 8.38101E-06-4.68240E-04-7.51487E-05
 -1       216 1.18352E-07-5.11524E-04-3.88254E-08
 -1       217-8.37358E-06-4.68355E-04 7.51602E-05
 -1       218-1.26897E-08-2.26936E-04 1.79369E-08
 -1       250-1.41647E-08-8.79625E-04 1.12505E-05
 -1       251 7.32406E-07-5.10441E-04-1.79685E-07
 -1       252-4.16908E-08-6.69246E-04 6.59303E-07
 -1       253-7.88468E-07-5.10433E-04-2.51115E-07
 -1       254-5.97814E-09-8.79832E-04-1.16850E-05
 -1       255-3.99046E-09-6.72911E-04 1.56119E-07
 -1       256-1.67558E-09-4.71324E-04 8.94977E-05
 -1       257-1.22736E-07-5.53294E-04 1.74010E-08
 -1       258-8.97216E-09-5.06951E-04-5.75986E-08
 -1       259 1.13808E-07-5.53296E-04 1.86534E-08
 -1       260 3.12780E-09-4.71326E-04-8.94885E-05
 -1       261 1.98029E-10-2.38185E-04-4.54955E-08
 -3
    1PSTEP                         4           4           1          
  100CL  104 2.00000E-02          81                     1    4           1
 -4  DISP        4    1
 -5  D1          1    2    1    0
 -5  D2          1    2    2    0
 -5  D3          1    2    3    0
 -5  ALL         1    2    0    0    1ALL
 -1         5 0.00000E+00 0.00000E+00 0.00000E+00
 -1         6 0.00000E+00 0.00000E+00 0.00000E+00
 -1         7 0.00000E+00 0.00000E+00 0.00000E+00
 -1         8 0.00000E+00 0.00000E+00 0.00000E+00
 -1        21 0.00000E+00 0.00000E+00 0.00000E+00
 -1        22 0.00000E+00 0.00000E+00 0.00000E+00
 -1        23 0.00000E+00 0.00000E+00 0.00000E+00
 -1        24 0.00000E+00 0.00000E+00 0.00000E+00
 -1        25 0.00000E+00 0.00000E+00 0.00000E+00
 -1        26 0.00000E+00 0.00000E+00 0.00000E+00
 -1        27 0.00000E+00 0.00000E+00 0.00000E+00
 -1        28 0.00000E+00 0.00000E+00 0.00000E+00
 -1        29 0.00000E+00 0.00000E+00 0.00000E+00
 -1        30 0.00000E+00 0.00000E+00 0.00000E+00
 -1        31 0.00000E+00 0.00000E+00 0.00000E+00
 -1        32 0.00000E+00 0.00000E+00 0.00000E+00
 -1        44 1.08184E-05 5.57376E-04-1.51683E-05
 -1        45 2.93127E-05 5.17635E-04-8.44082E-05
 -1        46 4.18041E-07 4.12369E-04-1.42869E-04
 -1        47-1.50583E-05 1.81636E-04-1.36450E-04
 -1        48 1.50613E-05 1.81637E-04-1.36452E-04
 -1        49-4.32239E-07 4.12372E-04-1.42861E-04
 -1        50-2.92683E-05 5.17593E-04-8.44063E-05
 -1        51-1.07622E-05 5.57266E-04-1.51496E-05
 -1        74-1.29599E-05 5.58786E-04 1.50902E-05
 -1        75-3.04767E-05 5.18357E-04 8.44300E-05
 -1        76-5.98092E-08 4.12397E-04 1.43015E-04
 -1        77 1.53774E-05 1.81408E-04 1.36460E-04
 -1        89 1.29650E-05 5.58861E-04 1.51019E-05
 -1        90 3.05195E-05 5.18387E-04 8.44301E-05
 -1        91 3.06256E-08 4.12389E-04 1.43018E-04
 -1        92-1.53772E-05 1.81403E-04 1.36456E-04
 -1        98 0.00000E+00 0.00000E+00 0.00000E+00
 -1        99 0.00000E+00 0.00000E+00 0.00000E+00
 -1       100 0.00000E+00 0.00000E+00 0.00000E+00
 -1       101 0.00000E+00 0.00000E+00 0.00000E+00
 -1       102 0.00000E+00 0.00000E+00 0.00000E+00
 -1       124-3.96630E-05 4.53926E-04-8.49277E-06
 -1       125 1.01578E-07 5.78220E-04-2.22172E-05
 -1       126 3.97777E-05 4.53954E-04-8.48511E-06
 -1       127-1.13529E-08 5.11198E-04-1.01868E-04
 -1       128 7.68456E-06 4.36526E-04-1.56731E-04
 -1       129 2.55379E-08 4.05507E-04-1.57103E-04
 -1       130-7.66232E-06 4.36529E-04-1.56741E-04
 -1       131-2.42350E-09 1.84719E-04-1.30591E-04
 -1       153 3.24761E-05 7.21072E-04-5.17883E-06
 -1       154-4.15106E-07 5.55111E-04-1.81661E-07
 -1       155-3.18121E-05 7.25062E-04 5.24129E-06
 -1       156 1.30108E-08 5.41132E-04-1.42978E-07
 -1       157-6.47924E-06 3.63882E-04-5.83875E-05
 -1       158 1.00630E-07 3.97235E-04-3.50565E-08
 -1       159 6.31655E-06 3.63115E-04 5.83256E-05
 -1       160-3.54533E-09 1.76140E-04 3.66776E-08
 -1       182-4.27168E-05 4.53415E-04 8.63129E-06
 -1       183 1.06752E-07 5.79102E-04 2.20186E-05
 -1       184 4.28112E-05 4.53424E-04 8.59191E-06
 -1       185-2.40413E-08 5.11384E-04 1.01958E-04
 -1       186 8.30771E-06 4.36674E-04 1.56815E-04
 -1       187 2.79891E-08 4.05109E-04 1.57126E-04
 -1       188-8.29052E-06 4.36674E-04 1.56828E-04
 -1       189-4.77255E-09 1.84685E-04 1.30547E-04
 -1       211 3.17662E-05 7.25081E-04 5.26614E-06
 -1       212 3.67006E-07 5.55093E-04-1.86537E-07
 -1       213-3.24964E-05 7.21018E-04-5.15373E-06
 -1       214-3.28567E-08 5.41127E-04-1.40021E-07
 -1       215-6.32182E-06 3.63113E-04 5.83206E-05
 -1       216-8.79457E-08 3.97231E-04-3.28718E-08
 -1       217 6.48146E-06 3.63877E-04-5.83899E-05
 -1       218 1.56701E-09 1.76139E-04 4.30980E-08
 -1       250-9.93908E-10 6.83956E-04-9.02742E-06
 -1       251-6.00886E-07 3.96041E-04-1.10167E-07
 -1       252-1.04512E-07 5.20242E-04 2.09038E-07
 -1       253 4.85792E-07 3.96051E-04-1.17779E-07
 -1       254 2.92058E-09 6.82281E-04 8.99791E-06
 -1       255 1.17911E-08 5.22854E-04 4.59949E-08
 -1       256 2.14088E-09 3.65866E-04-6.95555E-05
 -1       257 9.59387E-08 4.29787E-04-2.91513E-08
 -1       258-2.08103E-08 3.93427E-04-2.60102E-08
 -1       259-1.14034E-07 4.29789E-04-2.65077E-08
 -1       260 2.89219E-09 3.66138E-04 6.96019E-05
 -1       261 3.92179E-09 1.84883E-04-8.83928E-09
 -3
    1PSTEP                         5           5           1          
  100CL  105 2.50000E-02          81                     1    5           1
 -4  DISP        4    1
 -5  D1          1    2    1    0
 -5  D2          1    2    2    0
 -5  D3          1    2    3    0
 -5  ALL         1    2    0    0    1ALL
 -1         5 0.00000E+00 0.00000E+00 0.00000E+00
 -1         6 0.00000E+00 0.00000E+00 0.00000E+00
 -1         7 0.00000E+00 0.00000E+00 0.00000E+00
 -1         8 0.00000E+00 0.00000E+00 0.00000E+00
 -1        21 0.00000E+00 0.00000E+00 0.00000E+00
 -1        22 0.00000E+00 0.00000E+00 0.00000E+00
 -1        23 0.00000E+00 0.00000E+00 0.00000E+00
 -1        24 0.00000E+00 0.00000E+00 0.00000E+00
 -1        25 0.00000E+00 0.00000E+00 0.00000E+00
 -1        26 0.00000E+00 0.00000E+00 0.00000E+00
 -1        27 0.00000E+00 0.00000E+00 0.00000E+00
 -1        28 0.00000E+00 0.00000E+00 0.00000E+00
 -1        29 0.00000E+00 0.00000E+00 0.00000E+00
 -1        30 0.00000E+00 0.00000E+00 0.00000E+00
 -1        31 0.00000E+00 0.00000E+00 0.00000E+00
 -1        32 0.00000E+00 0.00000E+00 0.00000E+00
 -1        44-9.35620E-06-4.21606E-04 1.14627E-05
 -1        45-2.26783E-05-3.91229E-04 6.37494E-05
 -1        46-1.96434E-07-3.11162E-04 1.07754E-04
 -1        47 1.15327E-05-1.36998E-04 1.02996E-04
 -1        48-1.15372E-05-1.36998E-04 1.03000E-04
 -1        49 1.80120E-07-3.11162E-04 1.07756E-04
 -1        50 2.26365E-05-3.91211E-04 6.37796E-05
 -1        51 9.21235E-06-4.21516E-04 1.14977E-05
 -1        74 9.20072E-06-4.21102E-04-1.14305E-05
 -1        75 2.26806E-05-3.90970E-04-6.36315E-05
 -1        76 1.62141E-07-3.11475E-04-1.08041E-04
 -1        77-1.14951E-05-1.37063E-04-1.03056E-04
 -1        89-9.33326E-06-4.21180E-04-1.13892E-05
 -1        90-2.27140E-05-3.90977E-04-6.36023E-05
 -1        91-1.74563E-07-3.11472E-04-1.08034E-04
 -1        92 1.14942E-05-1.37060E-04-1.03050E-04
 -1        98 0.00000E+00 0.00000E+00 0.00000E+00
 -1        99 0.00000E+00 0.00000E+00 0.00000E+00
 -1       100 0.00000E+00 0.00000E+00 0.00000E+00
 -1       101 0.00000E+00 0.00000E+00 0.00000E+00
 -1       102 0.00000E+00 0.00000E+00 0.00000E+00
 -1       124 3.17237E-05-3.42463E-04 6.35081E-06
 -1       125-7.41945E-08-4.36770E-04 1.70343E-05
 -1       126-3.18610E-05-3.42494E-04 6.36996E-06
 -1       127-1.69779E-08-3.85868E-04 7.70660E-05
 -1       128-6.16477E-06-3.29590E-04 1.18373E-04
 -1       129-1.45760E-08-3.06069E-04 1.18653E-04
 -1       130 6.14008E-06-3.29593E-04 1.18366E-04
 -1       131-1.36263E-09-1.39446E-04 9.85312E-05
 -1       153-2.40994E-05-5.45790E-04 3.81461E-06
 -1       154-1.21779E-07-4.19140E-04 2.31346E-07
 -1       155 2.41080E-05-5.46463E-04-4.05402E-06
 -1       156-8.17661E-08-4.08488E-04-1.08629E-08
 -1       157 4.72910E-06-2.74423E-04 4.40091E-05
 -1       158 1.88431E-08-2.99929E-04-1.46185E-08
 -1       159-4.80198E-06-2.74348E-04-4.40623E-05
 -1       160 2.04412E-08-1.32965E-04-7.70204E-09
 -1       182 3.15997E-05-3.42599E-04-6.57528E-06
 -1       183-6.61029E-08-4.36788E-04-1.64300E-05
 -1       184-3.17231E-05-3.42623E-04-6.57105E-06
 -1       185-1.07266E-08-3.85951E-04-7.69167E-05
 -1       186-6.12177E-06-3.29567E-04-1.18341E-04
 -1       187-1.19586E-08-3.05906E-04-1.18571E-04
 -1       188 6.10161E-06-3.29568E-04-1.18334E-04
 -1       189-1.20379E-10-1.39444E-04-9.85721E-05
 -1       211-2.41649E-05-5.46491E-04-4.02378E-06
 -1       212 1.13740E-07-4.19127E-04 2.52245E-07
 -1       213 2.40378E-05-5.45743E-04 3.83395E-06
 -1       214 5.14631E-08-4.08485E-04 3.08606E-09
 -1       215 4.78689E-06-2.74346E-04-4.40483E-05
 -1       216-3.19763E-08-2.99925E-04 2.58231E-09
 -1       217-4.74639E-06-2.74419E-04 4.40219E-05
 -1       218-2.37908E-08-1.32964E-04-1.25670E-09
 -1       250-2.65550E-08-5.15821E-04 7.01338E-06
 -1       251 3.55628E-07-2.99015E-04 1.01087E-07
 -1       252 2.10116E-08-3.92689E-04-3.20326E-07
 -1       253-3.45556E-07-2.99022E-04 7.45329E-08
 -1       254-2.26811E-08-5.14888E-04-6.64119E-06
 -1       255-1.93821E-08-3.94735E-04-5.01746E-08
 -1       256-6.80237E-09-2.76267E-04 5.25419E-05
 -1       257-7.92531E-08-3.24437E-04-8.27463E-09
 -1       258 1.08139E-09-2.96930E-04 3.87777E-08
 -1       259 7.56700E-08-3.24439E-04-1.38041E-08
 -1       260-5.28855E-09-2.76416E-04-5.25438E-05
 -1       261-2.94761E-09-1.39567E-04 2.07685E-08
 -3
    1PSTEP                         6           6           1          
  100CL  106 3.00000E-02          81                     1    6           1
 -4  DISP        4    1
 -5  D1          1    2    1    0
 -5  D2          1    2    2    0
 -5  D3          1    2    3    0
 -5  ALL         1    2    0    0    1ALL
 -1         5 0.00000E+00 0.00000E+00 0.00000E+00
 -1         6 0.00000E+00 0.00000E+00 0.00000E+00
 -1         7 0.00000E+00 0.00000E+00 0.00000E+00
 -1         8 0.00000E+00 0.00000E+00 0.00000E+00
 -1        21 0.00000E+00 0.00000E+00 0.00000E+00
 -1        22 0.00000E+00 0.00000E+00 0.00000E+00
 -1        23 0.00000E+00 0.00000E+00 0.00000E+00
 -1        24 0.00000E+00 0.00000E+00 0.00000E+00
 -1        25 0.00000E+00 0.00000E+00 0.00000E+00
 -1        26 0.00000E+00 0.00000E+00 0.00000E+00
 -1        27 0.00000E+00 0.00000E+00 0.00000E+00
 -1        28 0.00000E+00 0.00000E+00 0.00000E+00
 -1        29 0.00000E+00 0.00000E+00 0.00000E+00
 -1        30 0.00000E+00 0.00000E+00 0.00000E+00
 -1        31 0.00000E+00 0.00000E+00 0.00000E+00
 -1        32 0.00000E+00 0.00000E+00 0.00000E+00
 -1        44 5.95237E-06 3.04671E-04-8.18042E-06
 -1        45 1.60723E-05 2.83089E-04-4.61261E-05
 -1        46 1.89278E-07 2.25747E-04-7.82501E-05
 -1        47-8.21911E-06 9.94217E-05-7.46591E-05