
 displacements (vx,vy,vz) for set NALL and time  0.5000000E-02

         5  0.000000E+00  0.000000E+00  0.000000E+00
         6  0.000000E+00  0.000000E+00  0.000000E+00
         7  0.000000E+00  0.000000E+00  0.000000E+00
         8  0.000000E+00  0.000000E+00  0.000000E+00
        21  0.000000E+00  0.000000E+00  0.000000E+00
        22  0.000000E+00  0.000000E+00  0.000000E+00
        23  0.000000E+00  0.000000E+00  0.000000E+00
        24  0.000000E+00  0.000000E+00  0.000000E+00
        25  0.000000E+00  0.000000E+00  0.000000E+00
        26  0.000000E+00  0.000000E+00  0.000000E+00
        27  0.000000E+00  0.000000E+00  0.000000E+00
        28  0.000000E+00  0.000000E+00  0.000000E+00
        29  0.000000E+00  0.000000E+00  0.000000E+00
        30  0.000000E+00  0.000000E+00  0.000000E+00
        31  0.000000E+00  0.000000E+00  0.000000E+00
        32  0.000000E+00  0.000000E+00  0.000000E+00
        44 -2.924860E-04 -2.115133E-03  1.720254E-05
        45 -1.571980E-04 -1.762403E-03  2.395042E-04
        46  6.600831E-05 -1.291695E-03  6.029742E-04
        47  5.908813E-05 -5.249710E-04  4.490462E-04
        48 -5.907906E-05 -5.249712E-04  4.490369E-04
        49 -6.597199E-05 -1.291711E-03  6.029561E-04
        50  1.572462E-04 -1.762396E-03  2.394752E-04
        51  2.925828E-04 -2.115182E-03  1.718037E-05
        74  7.244154E-04 -2.752005E-03 -8.322791E-05
        75  3.702873E-04 -2.101988E-03 -3.719626E-04
        76 -1.815280E-04 -1.065269E-03 -3.951992E-04
        77 -1.730703E-04 -4.167551E-04 -4.155733E-04
        89 -7.243722E-04 -2.752059E-03 -8.324934E-05
        90 -3.702471E-04 -2.101999E-03 -3.719969E-04
        91  1.815490E-04 -1.065276E-03 -3.952147E-04
        92  1.730746E-04 -4.167588E-04 -4.155819E-04
        98  0.000000E+00  0.000000E+00  0.000000E+00
        99  0.000000E+00  0.000000E+00  0.000000E+00
       100  0.000000E+00  0.000000E+00  0.000000E+00
       101  0.000000E+00  0.000000E+00  0.000000E+00
       102  0.000000E+00  0.000000E+00  0.000000E+00
       124  3.824201E-05 -1.294456E-03  1.098038E-04
       125  2.362475E-08 -1.928978E-03 -1.506446E-04
       126 -3.816720E-05 -1.294425E-03  1.097985E-04
       127  3.498181E-08 -1.684584E-03  2.924276E-04
       128 -2.574614E-08 -1.442858E-03  5.058570E-04
       129  7.665038E-09 -1.246148E-03  4.820667E-04
       130  5.069088E-08 -1.442851E-03  5.058691E-04
       131  5.624501E-09 -5.674501E-04  4.320312E-04
       153  6.002465E-05 -2.440220E-03  9.817166E-05
       154  1.279525E-04 -1.286910E-03 -2.028896E-04
       155 -2.205632E-04 -2.463589E-03  4.321977E-05
       156  1.778055E-05 -1.637415E-03 -1.197698E-05
       157  2.033855E-06 -1.116831E-03  2.041555E-04
       158 -1.585596E-05 -1.321895E-03 -1.227106E-05
       159  7.614320E-05 -1.093902E-03 -1.898854E-04
       160 -2.508602E-06 -5.993928E-04  4.952983E-06
       182  4.957371E-04 -1.092075E-03  3.419282E-05
       183  2.046804E-08 -2.228954E-03 -2.785796E-04
       184 -4.956922E-04 -1.092100E-03  3.417681E-05
       185  2.126246E-08 -1.730085E-03 -3.666918E-04
       186 -1.304708E-04 -1.592761E-03 -5.326064E-04
       187  7.723322E-09 -1.453875E-03 -5.246617E-04
       188  1.304883E-04 -1.592765E-03 -5.326135E-04
       189  2.750058E-09 -6.155660E-04 -4.154580E-04
       211  2.206094E-04 -2.463616E-03  4.321573E-05
       212 -1.279057E-04 -1.286918E-03 -2.029326E-04
       213 -5.994912E-05 -2.440250E-03  9.813455E-05
       214 -1.771492E-05 -1.637432E-03 -1.200149E-05
       215 -7.612530E-05 -1.093906E-03 -1.899112E-04
       216  1.586986E-05 -1.321893E-03 -1.229613E-05
       217 -2.009089E-06 -1.116837E-03  2.041340E-04
       218  2.517646E-06 -5.993962E-04  4.938998E-06
       250  4.594621E-08 -2.254822E-03 -1.032665E-04
       251 -1.662338E-04 -1.356334E-03 -9.810844E-05
       252  7.033347E-08 -1.470233E-03  2.106397E-04
       253  1.663249E-04 -1.356331E-03 -9.805750E-05
       254  4.629012E-08 -2.609665E-03 -1.577619E-04
       255  1.696294E-08 -1.558923E-03  8.914851E-06
       256  1.515230E-08 -1.166930E-03  2.168704E-04
       257  2.763834E-05 -1.357250E-03  5.399877E-06
       258  2.208070E-08 -1.373927E-03 -3.711877E-05
       259 -2.760868E-05 -1.357251E-03  5.405321E-06
       260  1.479736E-08 -1.204974E-03 -2.274608E-04
       261  2.099372E-09 -6.272929E-04 -9.526937E-06

 forces (fx,fy,fz) for set NALL and time  0.5000000E-02

         5 -5.292420E-01 -5.737829E+00 -4.614083E-01
         6  5.291957E-01 -5.737768E+00 -4.614028E-01
         7  1.899934E+00 -2.574406E+00  2.530678E+00
         8 -1.899981E+00 -2.574287E+00  2.530712E+00
        21  3.286234E+00  1.301083E+00 -1.479252E+01
        22  1.079069E-04 -9.708825E+00 -2.144868E+00
        23 -3.286244E+00  1.300877E+00 -1.479266E+01
        24  2.459324E-01  1.994498E+01 -6.867683E+00
        25  1.600094E+00 -1.221607E+01  6.594417E-01
        26  1.132275E+00  1.577775E+01  5.648733E+00
        27 -3.790330E+00 -1.593356E+00  1.232066E+01
        28  4.060866E-05 -7.895321E+00  5.181207E+00
        29  3.790404E+00 -1.593353E+00  1.232102E+01
        30 -1.132141E+00  1.577764E+01  5.648770E+00
        31 -1.599952E+00 -1.221616E+01  6.592368E-01
        32 -2.459463E-01  1.994516E+01 -6.867364E+00
        44 -6.382782E+00  4.089259E+01 -3.713484E+00
        45 -9.135017E-06 -6.080274E-01  1.525676E-01
        46  6.674956E-06  1.541465E+00 -4.634109E-01
        47 -2.183011E-06 -1.167008E+00  5.403045E-01
        48  2.218298E-06 -1.167007E+00  5.403051E-01
        49 -5.882618E-06  1.541465E+00 -4.634113E-01
        50  6.756355E-06 -6.080294E-01  1.525673E-01
        51  6.382778E+00  4.089282E+01 -3.713637E+00
        74 -1.120173E+01  1.875719E+01 -5.611727E+00
        75 -2.766689E-06 -6.081357E-01 -1.525312E-01
        76  7.639354E-07  1.541543E+00  4.634011E-01
        77  2.853424E-06 -1.167026E+00 -5.402991E-01
        89  1.120180E+01  1.875671E+01 -5.611808E+00
        90 -7.629992E-07 -6.081324E-01 -1.525308E-01
        91  2.217368E-08  1.541543E+00  4.634009E-01
        92 -2.350758E-06 -1.167029E+00 -5.402990E-01
        98 -1.201514E-04  3.515913E+01 -1.054625E+01
        99  4.130670E+00 -3.951235E-03  4.286131E-01
       100 -2.525097E-04 -2.459781E+01  1.859092E-01
       101 -4.130650E+00 -3.883268E-03  4.279070E-01
       102 -1.019610E-04  4.060300E+01  8.641129E+00
       124 -1.738452E+01  2.881166E+01  4.545603E+00
       125 -3.720128E-04  7.084315E+01 -6.173364E+00
       126  1.738426E+01  2.881217E+01  4.545384E+00
       127  9.931692E-07 -1.216055E+00  3.051243E-01
       128  5.830879E-06 -2.615766E+00  9.358689E-01
       129 -4.002259E-07  3.082930E+00 -9.268184E-01
       130 -6.234405E-06 -2.615766E+00  9.358677E-01
       131  6.473626E-07 -2.334016E+00  1.080607E+00
       153 -3.058305E+00 -1.127457E+02  4.664277E+00
       154 -9.376645E+00  7.872725E+01 -8.594563E+00
       155 -7.411793E+00 -8.813908E+01  1.022849E+01
       156 -1.630693E-05 -1.216153E+00 -3.099670E-05
       157 -9.437335E-06 -2.615777E+00  7.018891E-01
       158  9.102623E-06  3.083006E+00  1.452674E-05
       159 -3.336180E-06 -2.615857E+00 -7.018921E-01
       160 -2.058992E-06 -2.334038E+00 -4.665095E-06
       182  2.739910E+01  5.221087E+01  1.155985E+01
       183 -1.504211E-04  5.394608E+01 -1.099432E+01
       184 -2.739914E+01  5.221081E+01  1.155976E+01
       185  1.766062E-06 -6.742596E+00 -3.050603E-01
       186 -1.451517E-07 -8.142191E+00 -9.358352E-01
       187 -5.646333E-07 -2.443226E+00  9.268040E-01
       188 -2.766712E-07 -8.142190E+00 -9.358344E-01
       189  4.297749E-07 -7.860377E+00 -1.080595E+00
       211  7.411446E+00 -8.813873E+01  1.022950E+01
       212  9.376465E+00  7.872737E+01 -8.594680E+00
       213  3.058162E+00 -1.127464E+02  4.664243E+00
       214  1.233397E-05 -1.216153E+00 -2.911497E-05
       215  1.018398E-06 -2.615855E+00 -7.018922E-01
       216 -7.400737E-06  3.083006E+00  1.333564E-05
       217  7.510905E-06 -2.615778E+00  7.018894E-01
       218  1.271477E-06 -2.334038E+00 -5.939761E-06
       250  1.939762E-04 -2.045195E+02 -1.141070E+01
       251 -3.159806E+01  5.960680E+01 -2.433632E+00
       252  7.554129E-04  1.597957E+02  6.842006E+00
       253  3.159831E+01  5.960669E+01 -2.431277E+00
       254  2.969612E-04 -2.264428E+02  1.942140E-01
       255  4.152462E-06 -2.432312E+00 -7.777416E-05
       256  1.447581E-06 -5.231554E+00  1.403767E+00
       257  1.011457E-05 -5.231632E+00 -3.407638E-05
       258 -8.765805E-07  6.166016E+00  3.143437E-05
       259 -9.993365E-06 -5.231631E+00 -3.490455E-05
       260  2.148508E-06 -5.231723E+00 -1.403784E+00
       261 -2.703071E-07 -4.668080E+00 -1.271210E-05

 displacements (vx,vy,vz) for set NALL and time  0.1000000E-01

         5  0.000000E+00  0.000000E+00  0.000000E+00
         6  0.000000E+00  0.000000E+00  0.000000E+00
         7  0.000000E+00  0.000000E+00  0.000000E+00
         8  0.000000E+00  0.000000E+00  0.000000E+00
        21  0.000000E+00  0.000000E+00  0.000000E+00
        22  0.000000E+00  0.000000E+00  0.000000E+00
        23  0.000000E+00  0.000000E+00  0.000000E+00
        24  0.000000E+00  0.000000E+00  0.000000E+00
        25  0.000000E+00  0.000000E+00  0.000000E+00
        26  0.000000E+00  0.000000E+00  0.000000E+00
        27  0.000000E+00  0.000000E+00  0.000000E+00
        28  0.000000E+00  0.000000E+00  0.000000E+00
        29  0.000000E+00  0.000000E+00  0.000000E+00
        30  0.000000E+00  0.000000E+00  0.000000E+00
        31  0.000000E+00  0.000000E+00  0.000000E+00
        32  0.000000E+00  0.000000E+00  0.000000E+00
        44  1.829614E-05  9.054477E-04 -2.459837E-05
        45  4.813147E-05  8.409889E-04 -1.374146E-04
        46  2.364900E-08  6.707722E-04 -2.326173E-04
        47 -2.464674E-05  2.953372E-04 -2.218125E-04
        48  2.463987E-05  2.953414E-04 -2.217951E-04
        49 -7.572724E-08  6.707663E-04 -2.325698E-04
        50 -4.814817E-05  8.409578E-04 -1.373954E-04
        51 -1.834271E-05  9.052992E-04 -2.451300E-05
        74 -1.813580E-05  9.121531E-04  2.461218E-05
        75 -4.836686E-05  8.443209E-04  1.370876E-04
        76 -8.658919E-07  6.695621E-04  2.321830E-04
        77  2.477828E-05  2.943293E-04  2.218932E-04
        89  1.815656E-05  9.123359E-04  2.465876E-05
        90  4.833491E-05  8.443525E-04  1.370980E-04
        91  8.258994E-07  6.695701E-04  2.322376E-04
        92 -2.478525E-05  2.943254E-04  2.219135E-04
        98  0.000000E+00  0.000000E+00  0.000000E+00
        99  0.000000E+00  0.000000E+00  0.000000E+00
       100  0.000000E+00  0.000000E+00  0.000000E+00
       101  0.000000E+00  0.000000E+00  0.000000E+00
       102  0.000000E+00  0.000000E+00  0.000000E+00
       124 -6.286446E-05  7.381599E-04 -1.402036E-05
       125  6.392579E-08  9.404180E-04 -3.547017E-05
       126  6.288813E-05  7.382022E-04 -1.405809E-05
       127 -4.586581E-08  8.315675E-04 -1.654540E-04
       128  1.226297E-05  7.096998E-04 -2.548795E-04
       129  1.197679E-08  6.590186E-04 -2.554764E-04
       130 -1.227261E-05  7.097079E-04 -2.549062E-04
       131 -7.338107E-09  3.001616E-04 -2.123225E-04
       153  5.255595E-05  1.172760E-03 -8.624926E-06
       154  7.801228E-07  9.016846E-04  3.180627E-07
       155 -5.327402E-05  1.178769E-03  8.395409E-06
       156  4.008087E-07  8.795431E-04  2.440455E-07
       157 -1.056744E-05  5.915418E-04 -9.492417E-05
       158 -7.190674E-09  6.460464E-04  8.443945E-08
       159  1.060568E-05  5.904344E-04  9.482140E-05
       160 -2.117966E-07  2.864419E-04 -4.501353E-08
       182 -7.002625E-05  7.353501E-04  1.376093E-05
       183  5.462602E-08  9.451462E-04  3.638215E-05
       184  7.007379E-05  7.354120E-04  1.382395E-05
       185 -3.692539E-08  8.328894E-04  1.661248E-04
       186  1.362443E-05  7.108750E-04  2.550095E-04
       187  5.058238E-09  6.587254E-04  2.556069E-04
       188 -1.363499E-05  7.108839E-04  2.550299E-04
       189 -6.323845E-09  3.000794E-04  2.122126E-04
       211  5.317105E-05  1.178852E-03  8.457234E-06
       212 -9.510662E-07  9.016910E-04  2.946130E-07
       213 -5.269529E-05  1.172700E-03 -8.535499E-06
       214 -4.784183E-07  8.795480E-04  2.823450E-07
       215 -1.063154E-05  5.904410E-04  9.484428E-05
       216 -1.122142E-08  6.460433E-04  1.081905E-07
       217  1.053651E-05  5.915333E-04 -9.490618E-05
       218  2.003848E-07  2.864421E-04 -2.621374E-08
       250 -5.090318E-08  1.111747E-03 -1.436972E-05
       251 -3.541915E-06  6.444651E-04  1.402187E-07
       252 -1.665111E-07  8.442203E-04 -3.499097E-07
       253  3.305614E-06  6.444630E-04  1.737236E-07
       254 -5.658636E-08  1.111346E-03  1.494590E-05
       255 -2.083752E-08  8.495574E-04 -1.806750E-07
       256 -1.198129E-08  5.948339E-04 -1.130842E-04
       257  6.883246E-07  6.986668E-04  6.305297E-09
       258 -3.500724E-08  6.401306E-04  5.027728E-08
       259 -7.364698E-07  6.986678E-04 -8.439284E-09
       260 -1.525145E-08  5.951970E-04  1.131893E-04
       261 -3.242117E-10  3.008049E-04  2.610701E-08

 forces (fx,fy,fz) for set NALL and time  0.1000000E-01

         5 -7.719310E-01  1.671225E+00  1.010533E+00
         6  7.720878E-01  1.670938E+00  1.010361E+00
         7 -8.272017E-01  1.644360E+00 -1.014304E+00
         8  8.273113E-01  1.644066E+00 -1.013993E+00
        21  7.264415E-01 -6.931275E-01  6.961402E+00
        22 -3.268338E-04  2.872040E+00  2.095304E+00
        23 -7.264021E-01 -6.928229E-01  6.961555E+00
        24 -3.672170E-02 -7.369944E+00  2.890348E+00
        25  8.674734E-04  3.700665E+00  2.917401E-04
        26  7.360793E-02 -7.368609E+00 -2.890188E+00
        27  8.027010E-01 -6.382128E-01 -6.955226E+00
        28 -2.372337E-04  2.813762E+00 -2.103255E+00
        29 -8.026997E-01 -6.379571E-01 -6.955703E+00
        30 -7.362500E-02 -7.368330E+00 -2.890951E+00
        31 -1.065161E-03  3.700687E+00  8.087362E-04
        32  3.688847E-02 -7.370244E+00  2.889492E+00
        44 -5.197610E+00 -1.349218E+01 -7.244808E-01
        45  7.822009E-06  5.208265E-01 -1.306870E-01
        46 -5.717467E-06 -1.320394E+00  3.969505E-01
        47  1.871896E-06  9.996411E-01 -4.628164E-01
        48 -1.902121E-06  9.996400E-01 -4.628168E-01
        49  5.038752E-06 -1.320395E+00  3.969508E-01
        50 -5.784473E-06  5.208281E-01 -1.306868E-01
        51  5.197710E+00 -1.349437E+01 -7.256414E-01
        74  5.579384E+00 -1.330607E+01  7.406297E-01
        75  2.384592E-06  5.209192E-01  1.306558E-01
        76 -6.584870E-07 -1.320461E+00 -3.969421E-01
        77 -2.451256E-06  9.996564E-01  4.628117E-01
        89 -5.579210E+00 -1.330384E+01  7.387129E-01
        90  6.388927E-07  5.209164E-01  1.306555E-01
        91 -1.489000E-08 -1.320461E+00 -3.969419E-01
        92  2.020681E-06  9.996583E-01  4.628117E-01
        98 -5.201170E-05 -1.428633E+01  4.996720E+00
        99  4.048601E-02  3.233269E-01 -2.218414E-03
       100  5.399772E-04  6.668244E+00 -3.849450E-03
       101 -4.063078E-02  3.233323E-01 -2.046014E-03
       102  5.104649E-05 -1.429460E+01 -4.986449E+00
       124 -6.060389E+00 -1.380867E+01  2.127144E+00
       125  1.858568E-03 -2.424098E+01 -1.639597E+00
       126  6.061806E+00 -1.380855E+01  2.126181E+00
       127 -8.507218E-07  1.041653E+00 -2.613646E-01
       128 -4.993764E-06  2.240624E+00 -8.016506E-01
       129  3.428176E-07 -2.640789E+00  7.938981E-01
       130  5.339431E-06  2.240623E+00 -8.016495E-01
       131 -5.545188E-07  1.999281E+00 -9.256310E-01
       153  3.113319E+00  4.165941E+01  1.788763E+00
       154 -5.439027E-02 -2.778394E+01  1.412383E-02
       155 -3.331758E+00  4.170048E+01 -1.813274E+00
       156  1.397490E-05  1.041737E+00  2.655037E-05
       157  8.083824E-06  2.240633E+00 -6.012272E-01
       158 -7.800097E-06 -2.640854E+00 -1.244202E-05
       159  2.859885E-06  2.240701E+00  6.012297E-01
       160  1.762349E-06  1.999300E+00  3.995797E-06
       182 -6.620099E+00 -1.423390E+01 -2.158569E+00
       183  1.709944E-03 -2.375122E+01  1.670852E+00
       184  6.621448E+00 -1.423356E+01 -2.156236E+00
       185 -1.512771E-06  1.069547E+00  2.613098E-01
       186  1.256729E-07  2.268418E+00  8.016217E-01
       187  4.836478E-07 -2.613225E+00 -7.938857E-01
       188  2.356642E-07  2.268417E+00  8.016210E-01
       189 -3.681371E-07  2.027021E+00  9.256204E-01
       211  3.331831E+00  4.169765E+01 -1.809552E+00
       212  5.374795E-02 -2.778399E+01  9.947915E-03
       213 -3.113468E+00  4.166233E+01  1.792756E+00
       214 -1.057171E-05  1.041737E+00  2.493849E-05
       215 -8.744980E-07  2.240700E+00  6.012298E-01
       216  6.342270E-06 -2.640854E+00 -1.142174E-05
       217 -6.433663E-06  2.240634E+00 -6.012274E-01
       218 -1.087772E-06  1.999300E+00  5.087653E-06
       250  1.638418E-04  7.818967E+01  3.123050E+00
       251 -3.340085E-01 -3.221462E+01  4.262001E-04
       252 -3.706270E-03 -5.082935E+01 -1.436695E-02
       253  3.316159E-01 -3.221467E+01  3.318616E-03
       254 -4.582130E-05  7.808721E+01 -3.092824E+00
       255 -3.556913E-06  2.083479E+00  6.660827E-05
       256 -1.239963E-06  4.481267E+00 -1.202444E+00
       257 -8.665951E-06  4.481333E+00  2.918605E-05
       258  7.508471E-07 -5.281711E+00 -2.692002E-05
       259  8.562155E-06  4.481333E+00  2.989545E-05
       260 -1.840367E-06  4.481411E+00  1.202459E+00
       261  2.315442E-07  3.998604E+00  1.088949E-05

 displacements (vx,vy,vz) for set NALL and time  0.1500000E-01

         5  0.000000E+00  0.000000E+00  0.000000E+00
         6  0.000000E+00  0.000000E+00  0.000000E+00
         7  0.000000E+00  0.000000E+00  0.000000E+00
         8  0.000000E+00  0.000000E+00  0.000000E+00
        21  0.000000E+00  0.000000E+00  0.000000E+00
        22  0.000000E+00  0.000000E+00  0.000000E+00
        23  0.000000E+00  0.000000E+00  0.000000E+00
        24  0.000000E+00  0.000000E+00  0.000000E+00
        25  0.000000E+00  0.000000E+00  0.000000E+00
        26  0.000000E+00  0.000000E+00  0.000000E+00
        27  0.000000E+00  0.000000E+00  0.000000E+00
        28  0.000000E+00  0.000000E+00  0.000000E+00
        29  0.000000E+00  0.000000E+00  0.000000E+00
        30  0.000000E+00  0.000000E+00  0.000000E+00
        31  0.000000E+00  0.000000E+00  0.000000E+00
        32  0.000000E+00  0.000000E+00  0.000000E+00
        44 -1.470221E-05 -7.183085E-04  1.922015E-05
        45 -3.832605E-05 -6.666573E-04  1.085241E-04
        46 -8.961355E-08 -5.310604E-04  1.842225E-04
        47  1.952782E-05 -2.337769E-04  1.756930E-04
        48 -1.952639E-05 -2.337812E-04  1.756863E-04
        49  6.972645E-08 -5.310581E-04  1.842041E-04
        50  3.832707E-05 -6.666549E-04  1.085760E-04
        51  1.465938E-05 -7.183931E-04  1.929142E-05
        74  1.410915E-05 -7.195791E-04 -1.940959E-05
        75  3.798453E-05 -6.673423E-04 -1.087879E-04
        76  5.676491E-07 -5.306370E-04 -1.837451E-04
        77 -1.947534E-05 -2.336383E-04 -1.756091E-04
        89 -1.425189E-05 -7.195699E-04 -1.933570E-05
        90 -3.796578E-05 -6.673415E-04 -1.087353E-04
        91 -6.041112E-07 -5.306439E-04 -1.837712E-04
        92  1.947613E-05 -2.336353E-04 -1.756191E-04
        98  0.000000E+00  0.000000E+00  0.000000E+00
        99  0.000000E+00  0.000000E+00  0.000000E+00
       100  0.000000E+00  0.000000E+00  0.000000E+00
       101  0.000000E+00  0.000000E+00  0.000000E+00
       102  0.000000E+00  0.000000E+00  0.000000E+00
       124  5.062576E-05 -5.842063E-04  1.099154E-05
       125  1.593850E-08 -7.453682E-04  2.774279E-05
       126 -5.063385E-05 -5.841666E-04  1.097263E-05
       127 -1.263336E-08 -6.587319E-04  1.307780E-04
       128 -9.870871E-06 -5.621593E-04  2.017569E-04
       129  4.040179E-09 -5.216836E-04  2.021386E-04
       130  9.865907E-06 -5.621609E-04  2.017614E-04
       131 -1.833241E-09 -2.377807E-04  1.681947E-04
       153 -4.162964E-05 -9.293498E-04  6.806160E-06
       154 -9.847598E-08 -7.138660E-04 -5.289222E-07
       155  4.177647E-05 -9.297492E-04 -6.468637E-06
       156  3.281607E-08 -6.965489E-04 -8.826710E-08
       157  8.365048E-06 -4.683562E-04  7.514256E-05
       158 -1.170924E-07 -5.115283E-04 -4.416788E-08
       159 -8.397030E-06 -4.682410E-04 -7.515566E-05
       160  9.067262E-09 -2.269358E-04  1.856196E-08
       182  5.239784E-05 -5.837671E-04 -1.063715E-05
       183  2.779071E-08 -7.457671E-04 -2.872345E-05
       184 -5.244360E-05 -5.837697E-04 -1.068851E-05
       185 -2.948338E-08 -6.586965E-04 -1.310144E-04
       186 -1.012898E-05 -5.622553E-04 -2.017858E-04
       187  1.532026E-08 -5.217603E-04 -2.022382E-04
       188  1.012703E-05 -5.622582E-04 -2.017792E-04
       189 -3.427772E-09 -2.377777E-04 -1.681398E-04
       211 -4.187262E-05 -9.297562E-04 -6.445306E-06
       212  6.496181E-08 -7.138842E-04 -4.187680E-07
       213  4.158647E-05 -9.293973E-04  6.798011E-06
       214 -5.820789E-08 -6.965564E-04 -6.257953E-08
       215  8.381012E-06 -4.682404E-04 -7.514874E-05
       216  1.183518E-07 -5.115244E-04 -3.882542E-08
       217 -8.373576E-06 -4.683554E-04  7.516017E-05
       218 -1.268973E-08 -2.269363E-04  1.793689E-08
       250 -1.416467E-08 -8.796249E-04  1.125047E-05
       251  7.324063E-07 -5.104414E-04 -1.796850E-07
       252 -4.169084E-08 -6.692456E-04  6.593033E-07
       253 -7.884678E-07 -5.104332E-04 -2.511146E-07
       254 -5.978145E-09 -8.798321E-04 -1.168498E-05
       255 -3.990462E-09 -6.729110E-04  1.561192E-07
       256 -1.675584E-09 -4.713242E-04  8.949774E-05
       257 -1.227360E-07 -5.532941E-04  1.740096E-08
       258 -8.972160E-09 -5.069514E-04 -5.759859E-08
       259  1.138084E-07 -5.532956E-04  1.865338E-08
       260  3.127801E-09 -4.713263E-04 -8.948847E-05
       261  1.980287E-10 -2.381852E-04 -4.549546E-08

 forces (fx,fy,fz) for set NALL and time  0.1500000E-01

         5  6.156049E-01 -1.309559E+00 -8.019540E-01
         6 -6.155611E-01 -1.309687E+00 -8.015467E-01
         7  6.311672E-01 -1.300774E+00  8.058149E-01
         8 -6.310367E-01 -1.300909E+00  8.052667E-01
        21 -5.768768E-01  5.399730E-01 -5.515134E+00
        22 -1.731162E-04 -2.246189E+00 -1.662619E+00
        23  5.768578E-01  5.399870E-01 -5.515127E+00
        24  3.576199E-02  5.821197E+00 -2.287726E+00
        25 -2.993339E-04 -2.909060E+00  1.522383E-03
        26 -4.352443E-02  5.809210E+00  2.284302E+00
        27 -6.035000E-01  5.305805E-01  5.511547E+00
        28 -2.885113E-04 -2.239886E+00  1.665412E+00
        29  6.035473E-01  5.307161E-01  5.512053E+00
        30  4.386845E-02  5.809443E+00  2.284646E+00
        31  5.831297E-05 -2.909114E+00  9.382523E-04
        32 -3.565982E-02  5.821017E+00 -2.287087E+00
        44  4.134800E+00  1.060863E+01  5.709615E-01
        45 -6.212722E-06 -4.142246E-01  1.039383E-01
        46  4.545668E-06  1.050139E+00 -3.157037E-01
        47 -1.493214E-06 -7.950371E-01  3.680883E-01
        48  1.517249E-06 -7.950362E-01  3.680887E-01
        49 -4.005855E-06  1.050139E+00 -3.157039E-01
        50  4.592204E-06 -4.142259E-01  1.039381E-01
        51 -4.134989E+00  1.060819E+01  5.727671E-01
        74 -4.246911E+00  1.054289E+01 -5.920673E-01
        75 -1.921400E-06 -4.142984E-01 -1.039135E-01
        76  5.307791E-07  1.050192E+00  3.156969E-01
        77  1.961146E-06 -7.950493E-01 -3.680846E-01
        89  4.246600E+00  1.054336E+01 -5.896065E-01
        90 -4.832637E-07 -4.142961E-01 -1.039132E-01
        91  4.787803E-09  1.050192E+00  3.156968E-01
        92 -1.618703E-06 -7.950508E-01 -3.680845E-01
        98  3.397352E-05  1.127738E+01 -3.954460E+00
        99 -1.123218E-02 -2.491796E-01  4.305733E-04
       100  1.313194E-04 -5.244348E+00 -2.656124E-04
       101  1.129174E-02 -2.492122E-01  4.906273E-04
       102 -1.425886E-04  1.128995E+01  3.953740E+00
       124  4.810270E+00  1.100027E+01 -1.683102E+00
       125  3.424964E-04  1.900018E+01  1.294876E+00
       126 -4.810216E+00  1.100032E+01 -1.682305E+00
       127  6.765782E-07 -8.284494E-01  2.078691E-01
       128  3.969674E-06 -1.782019E+00  6.375707E-01
       129 -2.726334E-07  2.100278E+00 -6.314050E-01
       130 -4.244612E-06 -1.782018E+00  6.375699E-01
       131  4.410181E-07 -1.590073E+00  7.361752E-01
       153 -2.493380E+00 -3.290050E+01 -1.411663E+00
       154  5.825156E-03  2.189444E+01 -1.931506E-02
       155  2.548181E+00 -3.283824E+01  1.447485E+00
       156 -1.112382E-05 -8.285158E-01 -2.111481E-05
       157 -6.428459E-06 -1.782026E+00  4.781695E-01
       158  6.207691E-06  2.100330E+00  9.893515E-06
       159 -2.278290E-06 -1.782080E+00 -4.781715E-01
       160 -1.399758E-06 -1.590088E+00 -3.177599E-06
       182  4.989522E+00  1.107579E+01  1.716064E+00
       183  4.976263E-04  1.894156E+01 -1.329803E+00
       184 -4.989437E+00  1.107569E+01  1.712492E+00
       185  1.203125E-06 -8.300608E-01 -2.078255E-01
       186 -1.025893E-07 -1.783551E+00 -6.375478E-01
       187 -3.846413E-07  2.098929E+00  6.313951E-01
       188 -1.848087E-07 -1.783550E+00 -6.375472E-01
       189  2.927853E-07 -1.591562E+00 -7.361668E-01
       211 -2.548673E+00 -3.283862E+01  1.444230E+00
       212 -5.618064E-03  2.189446E+01 -1.479518E-02
       213  2.493152E+00 -3.290023E+01 -1.415761E+00
       214  8.417138E-06 -8.285162E-01 -1.983284E-05
       215  6.992473E-07 -1.782079E+00 -4.781716E-01
       216 -5.048215E-06  2.100330E+00  9.082050E-06
       217  5.116026E-06 -1.782026E+00  4.781697E-01
       218  8.632454E-07 -1.590088E+00 -4.045972E-06
       250  2.068549E-04 -6.165831E+01 -2.479978E+00
       251  7.415773E-02  2.546322E+01 -1.141403E-02
       252 -5.435522E-04  4.009012E+01  2.729900E-02
       253 -7.427561E-02  2.546338E+01 -1.336421E-02
       254  4.608339E-04 -6.170178E+01  2.456757E+00
       255  2.828854E-06 -1.657036E+00 -5.295846E-05
       256  9.861493E-07 -3.564052E+00  9.563310E-01
       257  6.894974E-06 -3.564104E+00 -2.320778E-05
       258 -5.971330E-07  4.200663E+00  2.140144E-05
       259 -6.812465E-06 -3.564104E+00 -2.377200E-05
       260  1.463667E-06 -3.564167E+00 -9.563427E-01
       261 -1.841584E-07 -3.180180E+00 -8.661362E-06

 displacements (vx,vy,vz) for set NALL and time  0.2000000E-01

         5  0.000000E+00  0.000000E+00  0.000000E+00
         6  0.000000E+00  0.000000E+00  0.000000E+00
         7  0.000000E+00  0.000000E+00  0.000000E+00
         8  0.000000E+00  0.000000E+00  0.000000E+00
        21  0.000000E+00  0.000000E+00  0.000000E+00
        22  0.000000E+00  0.000000E+00  0.000000E+00
        23  0.000000E+00  0.000000E+00  0.000000E+00
        24  0.000000E+00  0.000000E+00  0.000000E+00
        25  0.000000E+00  0.000000E+00  0.000000E+00
        26  0.000000E+00  0.000000E+00  0.000000E+00
        27  0.000000E+00  0.000000E+00  0.000000E+00
        28  0.000000E+00  0.000000E+00  0.000000E+00
        29  0.000000E+00  0.000000E+00  0.000000E+00
        30  0.000000E+00  0.000000E+00  0.000000E+00
        31  0.000000E+00  0.000000E+00  0.000000E+00
        32  0.000000E+00  0.000000E+00  0.000000E+00
        44  1.081843E-05  5.573755E-04 -1.516827E-05
        45  2.931267E-05  5.176350E-04 -8.440815E-05
        46  4.180408E-07  4.123695E-04 -1.428685E-04
        47 -1.505830E-05  1.816356E-04 -1.364499E-04
        48  1.506126E-05  1.816365E-04 -1.364521E-04
        49 -4.322386E-07  4.123723E-04 -1.428608E-04
        50 -2.926826E-05  5.175933E-04 -8.440627E-05
        51 -1.076221E-05  5.572662E-04 -1.514963E-05
        74 -1.295986E-05  5.587856E-04  1.509015E-05
        75 -3.047667E-05  5.183569E-04  8.443003E-05
        76 -5.980923E-08  4.123975E-04  1.430149E-04
        77  1.537738E-05  1.814080E-04  1.364598E-04
        89  1.296499E-05  5.588614E-04  1.510190E-05
        90  3.051955E-05  5.183874E-04  8.443005E-05
        91  3.062563E-08  4.123889E-04  1.430181E-04
        92 -1.537719E-05  1.814035E-04  1.364557E-04
        98  0.000000E+00  0.000000E+00  0.000000E+00
        99  0.000000E+00  0.000000E+00  0.000000E+00
       100  0.000000E+00  0.000000E+00  0.000000E+00
       101  0.000000E+00  0.000000E+00  0.000000E+00
       102  0.000000E+00  0.000000E+00  0.000000E+00
       124 -3.966303E-05  4.539255E-04 -8.492769E-06
       125  1.015785E-07  5.782204E-04 -2.221718E-05
       126  3.977765E-05  4.539537E-04 -8.485108E-06
       127 -1.135293E-08  5.111982E-04 -1.018684E-04
       128  7.684559E-06  4.365264E-04 -1.567310E-04
       129  2.553789E-08  4.055065E-04 -1.571029E-04
       130 -7.662319E-06  4.365289E-04 -1.567413E-04
       131 -2.423501E-09  1.847192E-04 -1.305908E-04
       153  3.247608E-05  7.210715E-04 -5.178827E-06
       154 -4.151058E-07  5.551106E-04 -1.816611E-07
       155 -3.181208E-05  7.250623E-04  5.241288E-06
       156  1.301085E-08  5.411319E-04 -1.429775E-07
       157 -6.479235E-06  3.638815E-04 -5.838745E-05
       158  1.006300E-07  3.972349E-04 -3.505647E-08
       159  6.316553E-06  3.631145E-04  5.832564E-05
       160 -3.545327E-09  1.761402E-04  3.667761E-08
       182 -4.271685E-05  4.534150E-04  8.631288E-06
       183  1.067518E-07  5.791019E-04  2.201861E-05
       184  4.281115E-05  4.534241E-04  8.591915E-06
       185 -2.404128E-08  5.113840E-04  1.019581E-04
       186  8.307712E-06  4.366738E-04  1.568151E-04
       187  2.798912E-08  4.051087E-04  1.571260E-04
       188 -8.290524E-06  4.366739E-04  1.568280E-04
       189 -4.772545E-09  1.846854E-04  1.305469E-04
       211  3.176622E-05  7.250813E-04  5.266140E-06
       212  3.670063E-07  5.550926E-04 -1.865366E-07
       213 -3.249636E-05  7.210183E-04 -5.153729E-06
       214 -3.285674E-08  5.411267E-04 -1.400213E-07
       215 -6.321819E-06  3.631128E-04  5.832062E-05
       216 -8.794565E-08  3.972313E-04 -3.287183E-08
       217  6.481458E-06  3.638766E-04 -5.838986E-05
       218  1.567012E-09  1.761386E-04  4.309796E-08
       250 -9.939076E-10  6.839563E-04 -9.027418E-06
       251 -6.008856E-07  3.960413E-04 -1.101674E-07