    1C
    1UUSER                                                              
    1UDATE              18.july.2018                                    
    1UTIME              00:26:58                                        
    1UHOST                                                              
    1UPGM               CalculiX                                        
    1UVERSION           Version 2.13                             
    1UCOMPILETIME       jue jun 14 00:40:39 CEST 2018                    
    1UDIR                                                               
    1UDBN                                                               
    1UMAT    1EL                                                        
    2C                           201                                     1
 -1         1 0.00000E+00 0.00000E+00 0.00000E+00
 -1         2 1.00000E+00 0.00000E+00 0.00000E+00
 -1         3 1.00000E+00 1.00000E+00 0.00000E+00
 -1         4 0.00000E+00 1.00000E+00 0.00000E+00
 -1         9 2.50000E-01 0.00000E+00 0.00000E+00
 -1        10 5.00000E-01 0.00000E+00 0.00000E+00
 -1        11 7.50000E-01 0.00000E+00 0.00000E+00
 -1        12 1.00000E+00 2.50000E-01 0.00000E+00
 -1        13 1.00000E+00 5.00000E-01 0.00000E+00
 -1        14 1.00000E+00 7.50000E-01 0.00000E+00
 -1        15 7.50000E-01 1.00000E+00 0.00000E+00
 -1        16 5.00000E-01 1.00000E+00 0.00000E+00
 -1        17 2.50000E-01 1.00000E+00 0.00000E+00
 -1        18 0.00000E+00 7.50000E-01 0.00000E+00
 -1        19 0.00000E+00 5.00000E-01 0.00000E+00
 -1        20 0.00000E+00 2.50000E-01 0.00000E+00
 -1        33 1.00000E+00 0.00000E+00 5.00000E-01
 -1        34 1.00000E+00 0.00000E+00 1.00000E+00
 -1        35 1.00000E+00 0.00000E+00 1.50000E+00
 -1        36 1.00000E+00 0.00000E+00 2.00000E+00
 -1        37 1.00000E+00 0.00000E+00 2.50000E+00
 -1        38 1.00000E+00 0.00000E+00 3.00000E+00
 -1        39 1.00000E+00 0.00000E+00 3.50000E+00
 -1        40 1.00000E+00 0.00000E+00 4.00000E+00
 -1        41 1.00000E+00 0.00000E+00 4.50000E+00
 -1        42 1.00000E+00 0.00000E+00 5.00000E+00
 -1        43 1.00000E+00 0.00000E+00 5.50000E+00
 -1        44 1.00000E+00 0.00000E+00 6.00000E+00
 -1        51 0.00000E+00 0.00000E+00 6.00000E+00
 -1        52 0.00000E+00 0.00000E+00 5.50000E+00
 -1        53 0.00000E+00 0.00000E+00 5.00000E+00
 -1        54 0.00000E+00 0.00000E+00 4.50000E+00
 -1        55 0.00000E+00 0.00000E+00 4.00000E+00
 -1        56 0.00000E+00 0.00000E+00 3.50000E+00
 -1        57 0.00000E+00 0.00000E+00 3.00000E+00
 -1        58 0.00000E+00 0.00000E+00 2.50000E+00
 -1        59 0.00000E+00 0.00000E+00 2.00000E+00
 -1        60 0.00000E+00 0.00000E+00 1.50000E+00
 -1        61 0.00000E+00 0.00000E+00 1.00000E+00
 -1        62 0.00000E+00 0.00000E+00 5.00000E-01
 -1        63 1.00000E+00 1.00000E+00 5.00000E-01
 -1        64 1.00000E+00 1.00000E+00 1.00000E+00
 -1        65 1.00000E+00 1.00000E+00 1.50000E+00
 -1        66 1.00000E+00 1.00000E+00 2.00000E+00
 -1        67 1.00000E+00 1.00000E+00 2.50000E+00
 -1        68 1.00000E+00 1.00000E+00 3.00000E+00
 -1        69 1.00000E+00 1.00000E+00 3.50000E+00
 -1        70 1.00000E+00 1.00000E+00 4.00000E+00
 -1        71 1.00000E+00 1.00000E+00 4.50000E+00
 -1        72 1.00000E+00 1.00000E+00 5.00000E+00
 -1        73 1.00000E+00 1.00000E+00 5.50000E+00
 -1        74 1.00000E+00 1.00000E+00 6.00000E+00
 -1        78 0.00000E+00 1.00000E+00 5.00000E-01
 -1        79 0.00000E+00 1.00000E+00 1.00000E+00
 -1        80 0.00000E+00 1.00000E+00 1.50000E+00
 -1        81 0.00000E+00 1.00000E+00 2.00000E+00
 -1        82 0.00000E+00 1.00000E+00 2.50000E+00
 -1        83 0.00000E+00 1.00000E+00 3.00000E+00
 -1        84 0.00000E+00 1.00000E+00 3.50000E+00
 -1        85 0.00000E+00 1.00000E+00 4.00000E+00
 -1        86 0.00000E+00 1.00000E+00 4.50000E+00
 -1        87 0.00000E+00 1.00000E+00 5.00000E+00
 -1        88 0.00000E+00 1.00000E+00 5.50000E+00
 -1        89 0.00000E+00 1.00000E+00 6.00000E+00
 -1        93 5.00000E-01 2.50000E-01 0.00000E+00
 -1        94 2.50000E-01 5.00000E-01 0.00000E+00
 -1        95 5.00000E-01 5.00000E-01 0.00000E+00
 -1        96 7.50000E-01 5.00000E-01 0.00000E+00
 -1        97 5.00000E-01 7.50000E-01 0.00000E+00
 -1       103 5.00000E-01 0.00000E+00 5.00000E-01
 -1       104 2.50000E-01 0.00000E+00 1.00000E+00
 -1       105 5.00000E-01 0.00000E+00 1.00000E+00
 -1       106 7.50000E-01 0.00000E+00 1.00000E+00
 -1       107 5.00000E-01 0.00000E+00 1.50000E+00
 -1       108 2.50000E-01 0.00000E+00 2.00000E+00
 -1       109 5.00000E-01 0.00000E+00 2.00000E+00
 -1       110 7.50000E-01 0.00000E+00 2.00000E+00
 -1       111 5.00000E-01 0.00000E+00 2.50000E+00
 -1       112 2.50000E-01 0.00000E+00 3.00000E+00
 -1       113 5.00000E-01 0.00000E+00 3.00000E+00
 -1       114 7.50000E-01 0.00000E+00 3.00000E+00
 -1       115 5.00000E-01 0.00000E+00 3.50000E+00
 -1       116 2.50000E-01 0.00000E+00 4.00000E+00
 -1       117 5.00000E-01 0.00000E+00 4.00000E+00
 -1       118 7.50000E-01 0.00000E+00 4.00000E+00
 -1       119 5.00000E-01 0.00000E+00 4.50000E+00
 -1       120 2.50000E-01 0.00000E+00 5.00000E+00
 -1       121 5.00000E-01 0.00000E+00 5.00000E+00
 -1       122 7.50000E-01 0.00000E+00 5.00000E+00
 -1       123 5.00000E-01 0.00000E+00 5.50000E+00
 -1       124 2.50000E-01 0.00000E+00 6.00000E+00
 -1       125 5.00000E-01 0.00000E+00 6.00000E+00
 -1       126 7.50000E-01 0.00000E+00 6.00000E+00
 -1       132 1.00000E+00 5.00000E-01 5.00000E-01
 -1       133 1.00000E+00 2.50000E-01 1.00000E+00
 -1       134 1.00000E+00 5.00000E-01 1.00000E+00
 -1       135 1.00000E+00 7.50000E-01 1.00000E+00
 -1       136 1.00000E+00 5.00000E-01 1.50000E+00
 -1       137 1.00000E+00 2.50000E-01 2.00000E+00
 -1       138 1.00000E+00 5.00000E-01 2.00000E+00
 -1       139 1.00000E+00 7.50000E-01 2.00000E+00
 -1       140 1.00000E+00 5.00000E-01 2.50000E+00
 -1       141 1.00000E+00 2.50000E-01 3.00000E+00
 -1       142 1.00000E+00 5.00000E-01 3.00000E+00
 -1       143 1.00000E+00 7.50000E-01 3.00000E+00
 -1       144 1.00000E+00 5.00000E-01 3.50000E+00
 -1       145 1.00000E+00 2.50000E-01 4.00000E+00
 -1       146 1.00000E+00 5.00000E-01 4.00000E+00
 -1       147 1.00000E+00 7.50000E-01 4.00000E+00
 -1       148 1.00000E+00 5.00000E-01 4.50000E+00
 -1       149 1.00000E+00 2.50000E-01 5.00000E+00
 -1       150 1.00000E+00 5.00000E-01 5.00000E+00
 -1       151 1.00000E+00 7.50000E-01 5.00000E+00
 -1       152 1.00000E+00 5.00000E-01 5.50000E+00
 -1       153 1.00000E+00 2.50000E-01 6.00000E+00
 -1       154 1.00000E+00 5.00000E-01 6.00000E+00
 -1       155 1.00000E+00 7.50000E-01 6.00000E+00
 -1       161 5.00000E-01 1.00000E+00 5.00000E-01
 -1       162 7.50000E-01 1.00000E+00 1.00000E+00
 -1       163 5.00000E-01 1.00000E+00 1.00000E+00
 -1       164 2.50000E-01 1.00000E+00 1.00000E+00
 -1       165 5.00000E-01 1.00000E+00 1.50000E+00
 -1       166 7.50000E-01 1.00000E+00 2.00000E+00
 -1       167 5.00000E-01 1.00000E+00 2.00000E+00
 -1       168 2.50000E-01 1.00000E+00 2.00000E+00
 -1       169 5.00000E-01 1.00000E+00 2.50000E+00
 -1       170 7.50000E-01 1.00000E+00 3.00000E+00
 -1       171 5.00000E-01 1.00000E+00 3.00000E+00
 -1       172 2.50000E-01 1.00000E+00 3.00000E+00
 -1       173 5.00000E-01 1.00000E+00 3.50000E+00
 -1       174 7.50000E-01 1.00000E+00 4.00000E+00
 -1       175 5.00000E-01 1.00000E+00 4.00000E+00
 -1       176 2.50000E-01 1.00000E+00 4.00000E+00
 -1       177 5.00000E-01 1.00000E+00 4.50000E+00
 -1       178 7.50000E-01 1.00000E+00 5.00000E+00
 -1       179 5.00000E-01 1.00000E+00 5.00000E+00
 -1       180 2.50000E-01 1.00000E+00 5.00000E+00
 -1       181 5.00000E-01 1.00000E+00 5.50000E+00
 -1       182 7.50000E-01 1.00000E+00 6.00000E+00
 -1       183 5.00000E-01 1.00000E+00 6.00000E+00
 -1       184 2.50000E-01 1.00000E+00 6.00000E+00
 -1       190 0.00000E+00 5.00000E-01 5.00000E-01
 -1       191 0.00000E+00 7.50000E-01 1.00000E+00
 -1       192 0.00000E+00 5.00000E-01 1.00000E+00
 -1       193 0.00000E+00 2.50000E-01 1.00000E+00
 -1       194 0.00000E+00 5.00000E-01 1.50000E+00
 -1       195 0.00000E+00 7.50000E-01 2.00000E+00
 -1       196 0.00000E+00 5.00000E-01 2.00000E+00
 -1       197 0.00000E+00 2.50000E-01 2.00000E+00
 -1       198 0.00000E+00 5.00000E-01 2.50000E+00
 -1       199 0.00000E+00 7.50000E-01 3.00000E+00
 -1       200 0.00000E+00 5.00000E-01 3.00000E+00
 -1       201 0.00000E+00 2.50000E-01 3.00000E+00
 -1       202 0.00000E+00 5.00000E-01 3.50000E+00
 -1       203 0.00000E+00 7.50000E-01 4.00000E+00
 -1       204 0.00000E+00 5.00000E-01 4.00000E+00
 -1       205 0.00000E+00 2.50000E-01 4.00000E+00
 -1       206 0.00000E+00 5.00000E-01 4.50000E+00
 -1       207 0.00000E+00 7.50000E-01 5.00000E+00
 -1       208 0.00000E+00 5.00000E-01 5.00000E+00
 -1       209 0.00000E+00 2.50000E-01 5.00000E+00
 -1       210 0.00000E+00 5.00000E-01 5.50000E+00
 -1       211 0.00000E+00 7.50000E-01 6.00000E+00
 -1       212 0.00000E+00 5.00000E-01 6.00000E+00
 -1       213 0.00000E+00 2.50000E-01 6.00000E+00
 -1       219 5.00000E-01 5.00000E-01 5.00000E-01
 -1       220 5.00000E-01 2.50000E-01 1.00000E+00
 -1       221 2.50000E-01 5.00000E-01 1.00000E+00
 -1       222 5.00000E-01 5.00000E-01 1.00000E+00
 -1       223 7.50000E-01 5.00000E-01 1.00000E+00
 -1       224 5.00000E-01 7.50000E-01 1.00000E+00
 -1       225 5.00000E-01 5.00000E-01 1.50000E+00
 -1       226 5.00000E-01 2.50000E-01 2.00000E+00
 -1       227 2.50000E-01 5.00000E-01 2.00000E+00
 -1       228 5.00000E-01 5.00000E-01 2.00000E+00
 -1       229 7.50000E-01 5.00000E-01 2.00000E+00
 -1       230 5.00000E-01 7.50000E-01 2.00000E+00
 -1       231 5.00000E-01 5.00000E-01 2.50000E+00
 -1       232 5.00000E-01 2.50000E-01 3.00000E+00
 -1       233 2.50000E-01 5.00000E-01 3.00000E+00
 -1       234 5.00000E-01 5.00000E-01 3.00000E+00
 -1       235 7.50000E-01 5.00000E-01 3.00000E+00
 -1       236 5.00000E-01 7.50000E-01 3.00000E+00
 -1       237 5.00000E-01 5.00000E-01 3.50000E+00
 -1       238 5.00000E-01 2.50000E-01 4.00000E+00
 -1       239 2.50000E-01 5.00000E-01 4.00000E+00
 -1       240 5.00000E-01 5.00000E-01 4.00000E+00
 -1       241 7.50000E-01 5.00000E-01 4.00000E+00
 -1       242 5.00000E-01 7.50000E-01 4.00000E+00
 -1       243 5.00000E-01 5.00000E-01 4.50000E+00
 -1       244 5.00000E-01 2.50000E-01 5.00000E+00
 -1       245 2.50000E-01 5.00000E-01 5.00000E+00
 -1       246 5.00000E-01 5.00000E-01 5.00000E+00
 -1       247 7.50000E-01 5.00000E-01 5.00000E+00
 -1       248 5.00000E-01 7.50000E-01 5.00000E+00
 -1       249 5.00000E-01 5.00000E-01 5.50000E+00
 -1       250 5.00000E-01 2.50000E-01 6.00000E+00
 -1       251 2.50000E-01 5.00000E-01 6.00000E+00
 -1       252 5.00000E-01 5.00000E-01 6.00000E+00
 -1       253 7.50000E-01 5.00000E-01 6.00000E+00
 -1       254 5.00000E-01 7.50000E-01 6.00000E+00
 -3
    3C                            24                                     1
 -1         1    4    0    1
 -2         1        10        95        19        61       105       222       192         9        93
 -2        94        20        62       103       219       190       104       220       221       193
 -1         2    4    0    1
 -2        10         2        13        95       105        34       134       222        11        12
 -2        96        93       103        33       132       219       106       133       223       220
 -1         3    4    0    1
 -2        19        95        16         4       192       222       163        79        94        97
 -2        17        18       190       219       161        78       221       224       164       191
 -1         4    4    0    1
 -2        95        13         3        16       222       134        64       163        96        14
 -2        15        97       219       132        63       161       223       135       162       224
 -1         5    4    0    1
 -2        61       105       222       192        59       109       228       196       104       220
 -2       221       193        60       107       225       194       108       226       227       197
 -1         6    4    0    1
 -2       105        34       134       222       109        36       138       228       106       133
 -2       223       220       107        35       136       225       110       137       229       226
 -1         7    4    0    1
 -2       192       222       163        79       196       228       167        81       221       224
 -2       164       191       194       225       165        80       227       230       168       195
 -1         8    4    0    1
 -2       222       134        64       163       228       138        66       167       223       135
 -2       162       224       225       136        65       165       229       139       166       230
 -1         9    4    0    1
 -2        59       109       228       196        57       113       234       200       108       226
 -2       227       197        58       111       231       198       112       232       233       201
 -1        10    4    0    1
 -2       109        36       138       228       113        38       142       234       110       137
 -2       229       226       111        37       140       231       114       141       235       232
 -1        11    4    0    1
 -2       196       228       167        81       200       234       171        83       227       230
 -2       168       195       198       231       169        82       233       236       172       199
 -1        12    4    0    1
 -2       228       138        66       167       234       142        68       171       229       139
 -2       166       230       231       140        67       169       235       143       170       236
 -1        13    4    0    1
 -2        57       113       234       200        55       117       240       204       112       232
 -2       233       201        56       115       237       202       116       238       239       205
 -1        14    4    0    1
 -2       113        38       142       234       117        40       146       240       114       141
 -2       235       232       115        39       144       237       118       145       241       238
 -1        15    4    0    1
 -2       200       234       171        83       204       240       175        85       233       236
 -2       172       199       202       237       173        84       239       242       176       203
 -1        16    4    0    1
 -2       234       142        68       171       240       146        70       175       235       143
 -2       170       236       237       144        69       173       241       147       174       242
 -1        17    4    0    1
 -2        55       117       240       204        53       121       246       208       116       238
 -2       239       205        54       119       243       206       120       244       245       209
 -1        18    4    0    1
 -2       117        40       146       240       121        42       150       246       118       145
 -2       241       238       119        41       148       243       122       149       247       244
 -1        19    4    0    1
 -2       204       240       175        85       208       246       179        87       239       242
 -2       176       203       206       243       177        86       245       248       180       207
 -1        20    4    0    1
 -2       240       146        70       175       246       150        72       179       241       147
 -2       174       242       243       148        71       177       247       151       178       248
 -1        21    4    0    1
 -2        53       121       246       208        51       125       252       212       120       244
 -2       245       209        52       123       249       210       124       250       251       213
 -1        22    4    0    1
 -2       121        42       150       246       125        44       154       252       122       149
 -2       247       244       123        43       152       249       126       153       253       250
 -1        23    4    0    1
 -2       208       246       179        87       212       252       183        89       245       248
 -2       180       207       210       249       181        88       251       254       184       211
 -1        24    4    0    1
 -2       246       150        72       179       252       154        74       183       247       151
 -2       178       248       249       152        73       181       253       155       182       254
 -3
    1PSTEP                         1           1           1          
  100CL  101 5.00000E-03         201                     1    1           1
 -4  DISP        4    1
 -5  D1          1    2    1    0
 -5  D2          1    2    2    0
 -5  D3          1    2    3    0
 -5  ALL         1    2    0    0    1ALL
 -1         1 0.00000E+00 0.00000E+00 0.00000E+00
 -1         2 0.00000E+00 0.00000E+00 0.00000E+00
 -1         3 0.00000E+00 0.00000E+00 0.00000E+00
 -1         4 0.00000E+00 0.00000E+00 0.00000E+00
 -1         9 0.00000E+00 0.00000E+00 0.00000E+00
 -1        10 0.00000E+00 0.00000E+00 0.00000E+00
 -1        11 0.00000E+00 0.00000E+00 0.00000E+00
 -1        12 0.00000E+00 0.00000E+00 0.00000E+00
 -1        13 0.00000E+00 0.00000E+00 0.00000E+00
 -1        14 0.00000E+00 0.00000E+00 0.00000E+00
 -1        15 0.00000E+00 0.00000E+00 0.00000E+00
 -1        16 0.00000E+00 0.00000E+00 0.00000E+00
 -1        17 0.00000E+00 0.00000E+00 0.00000E+00
 -1        18 0.00000E+00 0.00000E+00 0.00000E+00
 -1        19 0.00000E+00 0.00000E+00 0.00000E+00
 -1        20 0.00000E+00 0.00000E+00 0.00000E+00
 -1        33 1.25487E-05-1.01508E-04-1.41875E-04
 -1        34 6.89506E-06-3.22552E-04-2.46965E-04
 -1        35 4.33530E-06-6.35817E-04-3.13125E-04
 -1        36-1.09004E-06-9.85917E-04-3.42899E-04
 -1        37 2.02776E-06-1.35466E-03-3.31400E-04
 -1        38-5.18151E-06-1.68274E-03-2.91320E-04
 -1        39-1.67561E-05-1.99234E-03-2.14650E-04
 -1        40-2.28942E-05-2.12211E-03-9.51895E-05
 -1        41 3.96516E-05-2.12302E-03 5.64660E-05
 -1        42 3.87475E-05-2.02243E-03 1.27490E-04
 -1        43-1.20984E-04-1.99199E-03-1.15453E-04
 -1        44-2.92459E-04-2.11506E-03 1.71930E-05
 -1        51 2.92576E-04-2.11511E-03 1.71470E-05
 -1        52 1.21133E-04-1.99201E-03-1.15495E-04
 -1        53-3.85614E-05-2.02246E-03 1.27483E-04
 -1        54-3.94772E-05-2.12304E-03 5.64644E-05
 -1        55 2.30680E-05-2.12214E-03-9.51820E-05
 -1        56 1.69086E-05-1.99236E-03-2.14635E-04
 -1        57 5.31495E-06-1.68276E-03-2.91299E-04
 -1        58-1.92315E-06-1.35467E-03-3.31376E-04
 -1        59 1.16785E-06-9.85927E-04-3.42876E-04
 -1        60-4.28513E-06-6.35824E-04-3.13104E-04
 -1        61-6.86826E-06-3.22556E-04-2.46948E-04
 -1        62-1.25397E-05-1.01510E-04-1.41866E-04
 -1        63-1.25429E-05-1.00918E-04 1.41359E-04
 -1        64-7.69871E-06-3.22801E-04 2.44736E-04
 -1        65-2.85481E-06-6.36495E-04 3.08447E-04
 -1        66 8.05987E-07-9.92525E-04 3.33249E-04
 -1        67-2.70694E-06-1.34565E-03 3.32666E-04
 -1        68-7.22326E-06-1.68710E-03 2.93394E-04
 -1        69 3.55734E-05-2.00486E-03 1.84493E-04
 -1        70 5.58004E-05-2.20611E-03 5.26191E-05
 -1        71-8.47078E-05-2.00814E-03 4.48846E-06
 -1        72-2.25364E-04-1.82818E-03 4.72501E-05
 -1        73 3.58119E-04-2.33599E-03-2.15465E-04
 -1        74 7.24419E-04-2.75189E-03-8.31701E-05
 -1        78 1.25476E-05-1.00921E-04 1.41368E-04
 -1        79 7.71599E-06-3.22806E-04 2.44753E-04
 -1        80 2.89053E-06-6.36502E-04 3.08468E-04
 -1        81-7.47948E-07-9.92535E-04 3.33273E-04
 -1        82 2.78752E-06-1.34567E-03 3.32690E-04
 -1        83 7.32569E-06-1.68712E-03 2.93415E-04
 -1        84-3.54546E-05-2.00488E-03 1.84508E-04
 -1        85-5.56685E-05-2.20614E-03 5.26266E-05
 -1        86 8.48418E-05-2.00816E-03 4.48713E-06
 -1        87 2.25483E-04-1.82822E-03 4.72439E-05
 -1        88-3.58023E-04-2.33601E-03-2.15498E-04
 -1        89-7.24363E-04-2.75196E-03-8.31827E-05
 -1        93 0.00000E+00 0.00000E+00 0.00000E+00
 -1        94 0.00000E+00 0.00000E+00 0.00000E+00
 -1        95 0.00000E+00 0.00000E+00 0.00000E+00
 -1        96 0.00000E+00 0.00000E+00 0.00000E+00
 -1        97 0.00000E+00 0.00000E+00 0.00000E+00
 -1       103 4.34354E-09-1.06146E-04-1.41100E-04
 -1       104-3.12171E-06-3.28346E-04-2.48627E-04
 -1       105 1.31290E-08-3.29048E-04-2.48665E-04
 -1       106 3.14813E-06-3.28344E-04-2.48635E-04
 -1       107 2.51235E-08-6.36054E-04-3.13553E-04
 -1       108-1.65991E-07-9.87072E-04-3.40410E-04
 -1       109 3.82754E-08-9.97130E-04-3.40331E-04
 -1       110 2.43176E-07-9.87067E-04-3.40422E-04
 -1       111 5.28090E-08-1.34631E-03-3.37092E-04
 -1       112 5.25792E-06-1.71534E-03-2.97352E-04
 -1       113 6.49324E-08-1.71387E-03-2.92128E-04
 -1       114-5.12625E-06-1.71533E-03-2.97362E-04
 -1       115 7.77380E-08-1.96454E-03-2.10322E-04
 -1       116 1.26378E-06-2.12506E-03-7.26261E-05
 -1       117 8.27031E-08-2.26389E-03-8.29708E-05
 -1       118-1.09392E-06-2.12504E-03-7.26304E-05
 -1       119 9.08809E-08-2.11186E-03 2.65716E-05
 -1       120 8.68563E-06-2.23917E-03 2.34801E-05
 -1       121 7.90534E-08-2.07402E-03 2.38507E-05
 -1       122-8.51401E-06-2.23915E-03 2.34892E-05
 -1       123 8.43766E-08-1.93036E-03 5.62898E-05
 -1       124 3.82401E-05-1.29439E-03 1.09776E-04
 -1       125 2.82600E-08-1.92891E-03-1.50666E-04
 -1       126-3.81502E-05-1.29436E-03 1.09782E-04
 -1       132 1.22848E-08-9.48841E-05-5.00143E-07
 -1       133 3.65082E-06-3.20157E-04-1.17557E-04
 -1       134 2.29922E-07-3.22940E-04-5.33166E-07
 -1       135-3.44928E-06-3.20662E-04 1.14857E-04
 -1       136-2.48036E-08-6.30083E-04-2.57744E-06
 -1       137 1.88151E-07-9.90484E-04-1.67830E-04
 -1       138 1.68257E-06-9.86955E-04-2.32723E-06
 -1       139-6.39771E-07-9.92160E-04 1.64381E-04
 -1       140-1.46261E-06-1.35851E-03-2.25719E-06
 -1       141-2.61606E-06-1.68041E-03-1.40981E-04
 -1       142 8.05101E-07-1.70734E-03 6.34751E-07
 -1       143 5.46414E-06-1.68914E-03 1.30239E-04
 -1       144-1.41422E-07-1.97318E-03-8.10688E-06
 -1       145-7.28280E-06-2.17213E-03-4.54758E-05
 -1       146 8.17647E-06-2.10264E-03-1.64634E-05
 -1       147-6.01955E-06-2.18896E-03 4.70319E-05
 -1       148-7.14557E-06-2.16807E-03 6.32520E-06
 -1       149-8.72238E-06-1.85887E-03 5.02876E-07
 -1       150-9.72421E-07-2.08983E-03-1.75736E-05
 -1       151 4.32941E-05-1.83700E-03-5.21594E-05
 -1       152 1.40372E-05-1.86321E-03-1.78015E-05
 -1       153 6.00339E-05-2.44015E-03 9.81721E-05
 -1       154 1.27965E-04-1.28684E-03-2.02877E-04
 -1       155-2.20552E-04-2.46350E-03 4.32471E-05
 -1       161 2.05180E-09-1.06183E-04 1.39482E-04
 -1       162-3.76744E-06-3.28407E-04 2.46241E-04
 -1       163 8.47435E-09-3.28134E-04 2.46710E-04
 -1       164 3.78444E-06-3.28410E-04 2.46250E-04
 -1       165 1.78482E-08-6.36084E-04 3.10172E-04
 -1       166 6.61806E-07-9.86367E-04 3.36157E-04
 -1       167 2.87690E-08-9.92724E-04 3.38860E-04
 -1       168-6.04002E-07-9.86372E-04 3.36169E-04
 -1       169 4.04494E-08-1.35063E-03 3.26512E-04
 -1       170-4.94308E-06-1.71504E-03 2.90805E-04
 -1       171 5.07414E-08-1.69509E-03 2.87302E-04
 -1       172 5.04501E-06-1.71505E-03 2.90816E-04
 -1       173 6.00755E-08-1.97135E-03 2.01753E-04
 -1       174 3.46110E-05-2.07883E-03 6.58076E-05
 -1       175 6.54948E-08-2.14820E-03 6.81614E-05
 -1       176-3.44792E-05-2.07884E-03 6.58108E-05
 -1       177 6.71644E-08-2.12359E-03-4.54192E-05
 -1       178-1.42678E-04-2.30397E-03-5.59885E-05
 -1       179 5.98209E-08-2.04950E-03-7.54418E-05
 -1       180 1.42796E-04-2.30399E-03-5.59884E-05
 -1       181 5.01649E-08-1.90896E-03 3.88208E-06
 -1       182 4.95745E-04-1.09198E-03 3.42459E-05
 -1       183 3.26126E-08-2.22885E-03-2.78527E-04
 -1       184-4.95682E-04-1.09201E-03 3.42315E-05
 -1       190-5.05829E-09-9.48864E-05-4.90607E-07
 -1       191 3.46896E-06-3.20667E-04 1.14873E-04
 -1       192-2.08035E-07-3.22945E-04-5.16310E-07
 -1       193-3.62639E-06-3.20162E-04-1.17539E-04
 -1       194 6.82370E-08-6.30090E-04-2.55602E-06
 -1       195 7.02200E-07-9.92169E-04 1.64405E-04
 -1       196-1.61578E-06-9.86965E-04-2.30369E-06
 -1       197-1.15832E-07-9.90494E-04-1.67806E-04
 -1       198 1.55600E-06-1.35852E-03-2.23398E-06
 -1       199-5.35588E-06-1.68916E-03 1.30259E-04
 -1       200-6.90816E-07-1.70735E-03 6.54914E-07
 -1       201 2.73978E-06-1.68042E-03-1.40960E-04
 -1       202 2.79125E-07-1.97319E-03-8.09101E-06
 -1       203 6.15809E-06-2.18898E-03 4.70414E-05
 -1       204-8.03146E-06-2.10266E-03-1.64554E-05
 -1       205 7.44241E-06-2.17215E-03-4.54675E-05
 -1       206 7.30531E-06-2.16809E-03 6.32218E-06
 -1       207-4.31690E-05-1.83702E-03-5.21825E-05
 -1       208 1.10437E-06-2.08984E-03-1.75974E-05
 -1       209 8.88004E-06-1.85889E-03 4.87847E-07
 -1       210-1.39028E-05-1.86324E-03-1.78218E-05
 -1       211 2.20620E-04-2.46353E-03 4.32383E-05
 -1       212-1.27890E-04-1.28685E-03-2.02940E-04
 -1       213-5.99326E-05-2.44018E-03 9.81164E-05
 -1       219 3.32960E-09-1.00266E-04-6.77068E-07
 -1       220 1.21898E-08-3.24895E-04-1.18703E-04
 -1       221 6.82657E-08-3.25566E-04-1.16522E-06
 -1       222 1.11365E-08-3.25225E-04-1.87487E-06
 -1       223-4.62959E-08-3.25563E-04-1.17329E-06
 -1       224 9.85975E-09-3.24140E-04 1.16752E-04
 -1       225 2.14194E-08-6.33478E-04-9.25077E-07
 -1       226 3.62048E-08-9.92815E-04-1.69102E-04
 -1       227-1.39405E-06-9.85470E-04-2.65302E-06
 -1       228 3.41461E-08-9.83613E-04-2.68712E-06
 -1       229 1.46158E-06-9.85465E-04-2.66439E-06
 -1       230 3.14531E-08-9.91862E-04 1.62575E-04
 -1       231 4.61382E-08-1.36082E-03-3.77963E-06
 -1       232 6.21460E-08-1.69657E-03-1.39469E-04
 -1       233 1.87483E-06-1.69970E-03-4.07808E-06
 -1       234 5.93596E-08-1.69505E-03-1.03282E-05
 -1       235-1.75824E-06-1.69969E-03-4.08833E-06
 -1       236 5.50452E-08-1.68174E-03 1.37471E-04
 -1       237 6.77048E-08-1.97317E-03 5.63091E-06
 -1       238 8.04287E-08-2.21503E-03-5.04288E-05
 -1       239-1.05473E-05-2.10136E-03-8.16652E-06
 -1       240 7.84535E-08-2.09806E-03 8.91372E-06
 -1       241 1.06982E-05-2.10135E-03-8.16846E-06
 -1       242 7.19335E-08-2.17730E-03 2.19696E-05
 -1       243 7.52731E-08-2.18182E-03-3.48876E-05
 -1       244 8.11681E-08-1.95229E-03 3.46670E-05
 -1       245 3.01698E-05-2.11685E-03 5.11750E-06
 -1       246 8.28753E-08-2.12756E-03-1.71594E-05
 -1       247-3.00200E-05-2.11684E-03 5.12274E-06
 -1       248 7.09980E-08-1.88551E-03 9.72517E-06
 -1       249 5.88405E-08-1.79154E-03 4.67743E-05
 -1       250 5.46047E-08-2.25475E-03-1.03276E-04
 -1       251-1.66219E-04-1.35626E-03-9.81080E-05
 -1       252 8.37355E-08-1.47016E-03 2.10645E-04
 -1       253 1.66338E-04-1.35625E-03-9.80491E-05
 -1       254 5.93809E-08-2.60958E-03-1.57739E-04
 -3
    1PSTEP                         2           2           1          
  100CL  102 1.00000E-02         201                     1    2           1
 -4  DISP        4    1
 -5  D1          1    2    1    0
 -5  D2          1    2    2    0
 -5  D3          1    2    3    0
 -5  ALL         1    2    0    0    1ALL
 -1         1 0.00000E+00 0.00000E+00 0.00000E+00
 -1         2 0.00000E+00 0.00000E+00 0.00000E+00
 -1         3 0.00000E+00 0.00000E+00 0.00000E+00
 -1         4 0.00000E+00 0.00000E+00 0.00000E+00
 -1         9 0.00000E+00 0.00000E+00 0.00000E+00
 -1        10 0.00000E+00 0.00000E+00 0.00000E+00
 -1        11 0.00000E+00 0.00000E+00 0.00000E+00
 -1        12 0.00000E+00 0.00000E+00 0.00000E+00
 -1        13 0.00000E+00 0.00000E+00 0.00000E+00
 -1        14 0.00000E+00 0.00000E+00 0.00000E+00
 -1        15 0.00000E+00 0.00000E+00 0.00000E+00
 -1        16 0.00000E+00 0.00000E+00 0.00000E+00
 -1        17 0.00000E+00 0.00000E+00 0.00000E+00
 -1        18 0.00000E+00 0.00000E+00 0.00000E+00
 -1        19 0.00000E+00 0.00000E+00 0.00000E+00
 -1        20 0.00000E+00 0.00000E+00 0.00000E+00
 -1        33-6.30721E-06 5.20328E-05 7.24524E-05
 -1        34-3.55200E-06 1.65830E-04 1.25576E-04
 -1        35-2.16867E-06 3.24628E-04 1.58603E-04
 -1        36-3.61527E-07 5.05027E-04 1.72179E-04
 -1        37 4.64596E-07 6.90971E-04 1.68607E-04
 -1        38 2.77671E-06 8.66821E-04 1.46076E-04
 -1        39 8.52856E-06 1.00671E-03 9.84907E-05
 -1        40 8.05100E-06 1.08689E-03 3.38515E-05
 -1        41-5.99814E-06 1.07977E-03-1.55826E-05
 -1        42-1.08336E-05 1.04979E-03-3.85719E-05
 -1        43 3.12590E-05 9.49187E-04-4.55509E-05
 -1        44 1.82901E-05 9.05359E-04-2.45555E-05
 -1        51-1.82722E-05 9.05215E-04-2.45030E-05
 -1        52-3.13196E-05 9.49172E-04-4.55393E-05
 -1        53 1.06865E-05 1.04983E-03-3.85468E-05
 -1        54 5.88193E-06 1.07978E-03-1.55733E-05
 -1        55-8.17894E-06 1.08690E-03 3.38417E-05
 -1        56-8.63395E-06 1.00672E-03 9.84806E-05
 -1        57-2.87673E-06 8.66831E-04 1.46061E-04
 -1        58-5.39181E-07 6.90978E-04 1.68591E-04
 -1        59 3.03878E-07 5.05033E-04 1.72162E-04
 -1        60 2.13274E-06 3.24633E-04 1.58587E-04
 -1        61 3.53209E-06 1.65833E-04 1.25564E-04
 -1        62 6.30088E-06 5.20335E-05 7.24452E-05
 -1        63 6.29859E-06 5.20287E-05-7.24410E-05
 -1        64 3.52932E-06 1.65830E-04-1.25550E-04
 -1        65 2.14059E-06 3.24635E-04-1.58563E-04
 -1        66 3.37435E-07 5.05058E-04-1.72124E-04
 -1        67-5.54847E-07 6.90918E-04-1.68585E-04
 -1        68-2.94561E-06 8.66815E-04-1.46040E-04
 -1        69-8.60648E-06 1.00685E-03-9.83453E-05
 -1        70-8.04114E-06 1.08736E-03-3.37528E-05
 -1        71 5.92178E-06 1.07892E-03 1.53757E-05
 -1        72 9.88603E-06 1.04847E-03 3.83631E-05
 -1        73-3.16518E-05 9.52510E-04 4.67016E-05
 -1        74-1.81420E-05 9.12211E-04 2.46221E-05
 -1        78-6.30238E-06 5.20306E-05-7.24482E-05