    1C
    1UUSER                                                              
    1UDATE              18.july.2018                                    
    1UTIME              00:29:11                                        
    1UHOST                                                              
    1UPGM               CalculiX                                        
    1UVERSION           Version 2.13                             
    1UCOMPILETIME       jue jun 14 00:40:39 CEST 2018                    
    1UDIR                                                               
    1UDBN                                                               
    1UMAT    1EL                                                        
    2C                           201                                     1
 -1         1 0.00000E+00 0.00000E+00 0.00000E+00
 -1         2 1.00000E+00 0.00000E+00 0.00000E+00
 -1         3 1.00000E+00 1.00000E+00 0.00000E+00
 -1         4 0.00000E+00 1.00000E+00 0.00000E+00
 -1         9 2.50000E-01 0.00000E+00 0.00000E+00
 -1        10 5.00000E-01 0.00000E+00 0.00000E+00
 -1        11 7.50000E-01 0.00000E+00 0.00000E+00
 -1        12 1.00000E+00 2.50000E-01 0.00000E+00
 -1        13 1.00000E+00 5.00000E-01 0.00000E+00
 -1        14 1.00000E+00 7.50000E-01 0.00000E+00
 -1        15 7.50000E-01 1.00000E+00 0.00000E+00
 -1        16 5.00000E-01 1.00000E+00 0.00000E+00
 -1        17 2.50000E-01 1.00000E+00 0.00000E+00
 -1        18 0.00000E+00 7.50000E-01 0.00000E+00
 -1        19 0.00000E+00 5.00000E-01 0.00000E+00
 -1        20 0.00000E+00 2.50000E-01 0.00000E+00
 -1        33 1.00000E+00 0.00000E+00 5.00000E-01
 -1        34 1.00000E+00 0.00000E+00 1.00000E+00
 -1        35 1.00000E+00 0.00000E+00 1.50000E+00
 -1        36 1.00000E+00 0.00000E+00 2.00000E+00
 -1        37 1.00000E+00 0.00000E+00 2.50000E+00
 -1        38 1.00000E+00 0.00000E+00 3.00000E+00
 -1        39 1.00000E+00 0.00000E+00 3.50000E+00
 -1        40 1.00000E+00 0.00000E+00 4.00000E+00
 -1        41 1.00000E+00 0.00000E+00 4.50000E+00
 -1        42 1.00000E+00 0.00000E+00 5.00000E+00
 -1        43 1.00000E+00 0.00000E+00 5.50000E+00
 -1        44 1.00000E+00 0.00000E+00 6.00000E+00
 -1        51 0.00000E+00 0.00000E+00 6.00000E+00
 -1        52 0.00000E+00 0.00000E+00 5.50000E+00
 -1        53 0.00000E+00 0.00000E+00 5.00000E+00
 -1        54 0.00000E+00 0.00000E+00 4.50000E+00
 -1        55 0.00000E+00 0.00000E+00 4.00000E+00
 -1        56 0.00000E+00 0.00000E+00 3.50000E+00
 -1        57 0.00000E+00 0.00000E+00 3.00000E+00
 -1        58 0.00000E+00 0.00000E+00 2.50000E+00
 -1        59 0.00000E+00 0.00000E+00 2.00000E+00
 -1        60 0.00000E+00 0.00000E+00 1.50000E+00
 -1        61 0.00000E+00 0.00000E+00 1.00000E+00
 -1        62 0.00000E+00 0.00000E+00 5.00000E-01
 -1        63 1.00000E+00 1.00000E+00 5.00000E-01
 -1        64 1.00000E+00 1.00000E+00 1.00000E+00
 -1        65 1.00000E+00 1.00000E+00 1.50000E+00
 -1        66 1.00000E+00 1.00000E+00 2.00000E+00
 -1        67 1.00000E+00 1.00000E+00 2.50000E+00
 -1        68 1.00000E+00 1.00000E+00 3.00000E+00
 -1        69 1.00000E+00 1.00000E+00 3.50000E+00
 -1        70 1.00000E+00 1.00000E+00 4.00000E+00
 -1        71 1.00000E+00 1.00000E+00 4.50000E+00
 -1        72 1.00000E+00 1.00000E+00 5.00000E+00
 -1        73 1.00000E+00 1.00000E+00 5.50000E+00
 -1        74 1.00000E+00 1.00000E+00 6.00000E+00
 -1        78 0.00000E+00 1.00000E+00 5.00000E-01
 -1        79 0.00000E+00 1.00000E+00 1.00000E+00
 -1        80 0.00000E+00 1.00000E+00 1.50000E+00
 -1        81 0.00000E+00 1.00000E+00 2.00000E+00
 -1        82 0.00000E+00 1.00000E+00 2.50000E+00
 -1        83 0.00000E+00 1.00000E+00 3.00000E+00
 -1        84 0.00000E+00 1.00000E+00 3.50000E+00
 -1        85 0.00000E+00 1.00000E+00 4.00000E+00
 -1        86 0.00000E+00 1.00000E+00 4.50000E+00
 -1        87 0.00000E+00 1.00000E+00 5.00000E+00
 -1        88 0.00000E+00 1.00000E+00 5.50000E+00
 -1        89 0.00000E+00 1.00000E+00 6.00000E+00
 -1        93 5.00000E-01 2.50000E-01 0.00000E+00
 -1        94 2.50000E-01 5.00000E-01 0.00000E+00
 -1        95 5.00000E-01 5.00000E-01 0.00000E+00
 -1        96 7.50000E-01 5.00000E-01 0.00000E+00
 -1        97 5.00000E-01 7.50000E-01 0.00000E+00
 -1       103 5.00000E-01 0.00000E+00 5.00000E-01
 -1       104 2.50000E-01 0.00000E+00 1.00000E+00
 -1       105 5.00000E-01 0.00000E+00 1.00000E+00
 -1       106 7.50000E-01 0.00000E+00 1.00000E+00
 -1       107 5.00000E-01 0.00000E+00 1.50000E+00
 -1       108 2.50000E-01 0.00000E+00 2.00000E+00
 -1       109 5.00000E-01 0.00000E+00 2.00000E+00
 -1       110 7.50000E-01 0.00000E+00 2.00000E+00
 -1       111 5.00000E-01 0.00000E+00 2.50000E+00
 -1       112 2.50000E-01 0.00000E+00 3.00000E+00
 -1       113 5.00000E-01 0.00000E+00 3.00000E+00
 -1       114 7.50000E-01 0.00000E+00 3.00000E+00
 -1       115 5.00000E-01 0.00000E+00 3.50000E+00
 -1       116 2.50000E-01 0.00000E+00 4.00000E+00
 -1       117 5.00000E-01 0.00000E+00 4.00000E+00
 -1       118 7.50000E-01 0.00000E+00 4.00000E+00
 -1       119 5.00000E-01 0.00000E+00 4.50000E+00
 -1       120 2.50000E-01 0.00000E+00 5.00000E+00
 -1       121 5.00000E-01 0.00000E+00 5.00000E+00
 -1       122 7.50000E-01 0.00000E+00 5.00000E+00
 -1       123 5.00000E-01 0.00000E+00 5.50000E+00
 -1       124 2.50000E-01 0.00000E+00 6.00000E+00
 -1       125 5.00000E-01 0.00000E+00 6.00000E+00
 -1       126 7.50000E-01 0.00000E+00 6.00000E+00
 -1       132 1.00000E+00 5.00000E-01 5.00000E-01
 -1       133 1.00000E+00 2.50000E-01 1.00000E+00
 -1       134 1.00000E+00 5.00000E-01 1.00000E+00
 -1       135 1.00000E+00 7.50000E-01 1.00000E+00
 -1       136 1.00000E+00 5.00000E-01 1.50000E+00
 -1       137 1.00000E+00 2.50000E-01 2.00000E+00
 -1       138 1.00000E+00 5.00000E-01 2.00000E+00
 -1       139 1.00000E+00 7.50000E-01 2.00000E+00
 -1       140 1.00000E+00 5.00000E-01 2.50000E+00
 -1       141 1.00000E+00 2.50000E-01 3.00000E+00
 -1       142 1.00000E+00 5.00000E-01 3.00000E+00
 -1       143 1.00000E+00 7.50000E-01 3.00000E+00
 -1       144 1.00000E+00 5.00000E-01 3.50000E+00
 -1       145 1.00000E+00 2.50000E-01 4.00000E+00
 -1       146 1.00000E+00 5.00000E-01 4.00000E+00
 -1       147 1.00000E+00 7.50000E-01 4.00000E+00
 -1       148 1.00000E+00 5.00000E-01 4.50000E+00
 -1       149 1.00000E+00 2.50000E-01 5.00000E+00
 -1       150 1.00000E+00 5.00000E-01 5.00000E+00
 -1       151 1.00000E+00 7.50000E-01 5.00000E+00
 -1       152 1.00000E+00 5.00000E-01 5.50000E+00
 -1       153 1.00000E+00 2.50000E-01 6.00000E+00
 -1       154 1.00000E+00 5.00000E-01 6.00000E+00
 -1       155 1.00000E+00 7.50000E-01 6.00000E+00
 -1       161 5.00000E-01 1.00000E+00 5.00000E-01
 -1       162 7.50000E-01 1.00000E+00 1.00000E+00
 -1       163 5.00000E-01 1.00000E+00 1.00000E+00
 -1       164 2.50000E-01 1.00000E+00 1.00000E+00
 -1       165 5.00000E-01 1.00000E+00 1.50000E+00
 -1       166 7.50000E-01 1.00000E+00 2.00000E+00
 -1       167 5.00000E-01 1.00000E+00 2.00000E+00
 -1       168 2.50000E-01 1.00000E+00 2.00000E+00
 -1       169 5.00000E-01 1.00000E+00 2.50000E+00
 -1       170 7.50000E-01 1.00000E+00 3.00000E+00
 -1       171 5.00000E-01 1.00000E+00 3.00000E+00
 -1       172 2.50000E-01 1.00000E+00 3.00000E+00
 -1       173 5.00000E-01 1.00000E+00 3.50000E+00
 -1       174 7.50000E-01 1.00000E+00 4.00000E+00
 -1       175 5.00000E-01 1.00000E+00 4.00000E+00
 -1       176 2.50000E-01 1.00000E+00 4.00000E+00
 -1       177 5.00000E-01 1.00000E+00 4.50000E+00
 -1       178 7.50000E-01 1.00000E+00 5.00000E+00
 -1       179 5.00000E-01 1.00000E+00 5.00000E+00
 -1       180 2.50000E-01 1.00000E+00 5.00000E+00
 -1       181 5.00000E-01 1.00000E+00 5.50000E+00
 -1       182 7.50000E-01 1.00000E+00 6.00000E+00
 -1       183 5.00000E-01 1.00000E+00 6.00000E+00
 -1       184 2.50000E-01 1.00000E+00 6.00000E+00
 -1       190 0.00000E+00 5.00000E-01 5.00000E-01
 -1       191 0.00000E+00 7.50000E-01 1.00000E+00
 -1       192 0.00000E+00 5.00000E-01 1.00000E+00
 -1       193 0.00000E+00 2.50000E-01 1.00000E+00
 -1       194 0.00000E+00 5.00000E-01 1.50000E+00
 -1       195 0.00000E+00 7.50000E-01 2.00000E+00
 -1       196 0.00000E+00 5.00000E-01 2.00000E+00
 -1       197 0.00000E+00 2.50000E-01 2.00000E+00
 -1       198 0.00000E+00 5.00000E-01 2.50000E+00
 -1       199 0.00000E+00 7.50000E-01 3.00000E+00
 -1       200 0.00000E+00 5.00000E-01 3.00000E+00
 -1       201 0.00000E+00 2.50000E-01 3.00000E+00
 -1       202 0.00000E+00 5.00000E-01 3.50000E+00
 -1       203 0.00000E+00 7.50000E-01 4.00000E+00
 -1       204 0.00000E+00 5.00000E-01 4.00000E+00
 -1       205 0.00000E+00 2.50000E-01 4.00000E+00
 -1       206 0.00000E+00 5.00000E-01 4.50000E+00
 -1       207 0.00000E+00 7.50000E-01 5.00000E+00
 -1       208 0.00000E+00 5.00000E-01 5.00000E+00
 -1       209 0.00000E+00 2.50000E-01 5.00000E+00
 -1       210 0.00000E+00 5.00000E-01 5.50000E+00
 -1       211 0.00000E+00 7.50000E-01 6.00000E+00
 -1       212 0.00000E+00 5.00000E-01 6.00000E+00
 -1       213 0.00000E+00 2.50000E-01 6.00000E+00
 -1       219 5.00000E-01 5.00000E-01 5.00000E-01
 -1       220 5.00000E-01 2.50000E-01 1.00000E+00
 -1       221 2.50000E-01 5.00000E-01 1.00000E+00
 -1       222 5.00000E-01 5.00000E-01 1.00000E+00
 -1       223 7.50000E-01 5.00000E-01 1.00000E+00
 -1       224 5.00000E-01 7.50000E-01 1.00000E+00
 -1       225 5.00000E-01 5.00000E-01 1.50000E+00
 -1       226 5.00000E-01 2.50000E-01 2.00000E+00
 -1       227 2.50000E-01 5.00000E-01 2.00000E+00
 -1       228 5.00000E-01 5.00000E-01 2.00000E+00
 -1       229 7.50000E-01 5.00000E-01 2.00000E+00
 -1       230 5.00000E-01 7.50000E-01 2.00000E+00
 -1       231 5.00000E-01 5.00000E-01 2.50000E+00
 -1       232 5.00000E-01 2.50000E-01 3.00000E+00
 -1       233 2.50000E-01 5.00000E-01 3.00000E+00
 -1       234 5.00000E-01 5.00000E-01 3.00000E+00
 -1       235 7.50000E-01 5.00000E-01 3.00000E+00
 -1       236 5.00000E-01 7.50000E-01 3.00000E+00
 -1       237 5.00000E-01 5.00000E-01 3.50000E+00
 -1       238 5.00000E-01 2.50000E-01 4.00000E+00
 -1       239 2.50000E-01 5.00000E-01 4.00000E+00
 -1       240 5.00000E-01 5.00000E-01 4.00000E+00
 -1       241 7.50000E-01 5.00000E-01 4.00000E+00
 -1       242 5.00000E-01 7.50000E-01 4.00000E+00
 -1       243 5.00000E-01 5.00000E-01 4.50000E+00
 -1       244 5.00000E-01 2.50000E-01 5.00000E+00
 -1       245 2.50000E-01 5.00000E-01 5.00000E+00
 -1       246 5.00000E-01 5.00000E-01 5.00000E+00
 -1       247 7.50000E-01 5.00000E-01 5.00000E+00
 -1       248 5.00000E-01 7.50000E-01 5.00000E+00
 -1       249 5.00000E-01 5.00000E-01 5.50000E+00
 -1       250 5.00000E-01 2.50000E-01 6.00000E+00
 -1       251 2.50000E-01 5.00000E-01 6.00000E+00
 -1       252 5.00000E-01 5.00000E-01 6.00000E+00
 -1       253 7.50000E-01 5.00000E-01 6.00000E+00
 -1       254 5.00000E-01 7.50000E-01 6.00000E+00
 -3
    3C                            24                                     1
 -1         1    4    0    1
 -2         1        10        95        19        61       105       222       192         9        93
 -2        94        20        62       103       219       190       104       220       221       193
 -1         2    4    0    1
 -2        10         2        13        95       105        34       134       222        11        12
 -2        96        93       103        33       132       219       106       133       223       220
 -1         3    4    0    1
 -2        19        95        16         4       192       222       163        79        94        97
 -2        17        18       190       219       161        78       221       224       164       191
 -1         4    4    0    1
 -2        95        13         3        16       222       134        64       163        96        14
 -2        15        97       219       132        63       161       223       135       162       224
 -1         5    4    0    1
 -2        61       105       222       192        59       109       228       196       104       220
 -2       221       193        60       107       225       194       108       226       227       197
 -1         6    4    0    1
 -2       105        34       134       222       109        36       138       228       106       133
 -2       223       220       107        35       136       225       110       137       229       226
 -1         7    4    0    1
 -2       192       222       163        79       196       228       167        81       221       224
 -2       164       191       194       225       165        80       227       230       168       195
 -1         8    4    0    1
 -2       222       134        64       163       228       138        66       167       223       135
 -2       162       224       225       136        65       165       229       139       166       230
 -1         9    4    0    1
 -2        59       109       228       196        57       113       234       200       108       226
 -2       227       197        58       111       231       198       112       232       233       201
 -1        10    4    0    1
 -2       109        36       138       228       113        38       142       234       110       137
 -2       229       226       111        37       140       231       114       141       235       232
 -1        11    4    0    1
 -2       196       228       167        81       200       234       171        83       227       230
 -2       168       195       198       231       169        82       233       236       172       199
 -1        12    4    0    1
 -2       228       138        66       167       234       142        68       171       229       139
 -2       166       230       231       140        67       169       235       143       170       236
 -1        13    4    0    1
 -2        57       113       234       200        55       117       240       204       112       232
 -2       233       201        56       115       237       202       116       238       239       205
 -1        14    4    0    1
 -2       113        38       142       234       117        40       146       240       114       141
 -2       235       232       115        39       144       237       118       145       241       238
 -1        15    4    0    1
 -2       200       234       171        83       204       240       175        85       233       236
 -2       172       199       202       237       173        84       239       242       176       203
 -1        16    4    0    1
 -2       234       142        68       171       240       146        70       175       235       143
 -2       170       236       237       144        69       173       241       147       174       242
 -1        17    4    0    1
 -2        55       117       240       204        53       121       246       208       116       238
 -2       239       205        54       119       243       206       120       244       245       209
 -1        18    4    0    1
 -2       117        40       146       240       121        42       150       246       118       145
 -2       241       238       119        41       148       243       122       149       247       244
 -1        19    4    0    1
 -2       204       240       175        85       208       246       179        87       239       242
 -2       176       203       206       243       177        86       245       248       180       207
 -1        20    4    0    1
 -2       240       146        70       175       246       150        72       179       241       147
 -2       174       242       243       148        71       177       247       151       178       248
 -1        21    4    0    1
 -2        53       121       246       208        51       125       252       212       120       244
 -2       245       209        52       123       249       210       124       250       251       213
 -1        22    4    0    1
 -2       121        42       150       246       125        44       154       252       122       149
 -2       247       244       123        43       152       249       126       153       253       250
 -1        23    4    0    1
 -2       208       246       179        87       212       252       183        89       245       248
 -2       180       207       210       249       181        88       251       254       184       211
 -1        24    4    0    1
 -2       246       150        72       179       252       154        74       183       247       151
 -2       178       248       249       152        73       181       253       155       182       254
 -3
    1PSTEP                         1           1           1          
  100CL  101 5.00000E-03         201                     1    1           1
 -4  DISP        4    1
 -5  D1          1    2    1    0
 -5  D2          1    2    2    0
 -5  D3          1    2    3    0
 -5  ALL         1    2    0    0    1ALL
 -1         1 0.00000E+00 0.00000E+00 0.00000E+00
 -1         2 0.00000E+00 0.00000E+00 0.00000E+00
 -1         3 0.00000E+00 0.00000E+00 0.00000E+00
 -1         4 0.00000E+00 0.00000E+00 0.00000E+00
 -1         9 0.00000E+00 0.00000E+00 0.00000E+00
 -1        10 0.00000E+00 0.00000E+00 0.00000E+00
 -1        11 0.00000E+00 0.00000E+00 0.00000E+00
 -1        12 0.00000E+00 0.00000E+00 0.00000E+00
 -1        13 0.00000E+00 0.00000E+00 0.00000E+00
 -1        14 0.00000E+00 0.00000E+00 0.00000E+00
 -1        15 0.00000E+00 0.00000E+00 0.00000E+00
 -1        16 0.00000E+00 0.00000E+00 0.00000E+00
 -1        17 0.00000E+00 0.00000E+00 0.00000E+00
 -1        18 0.00000E+00 0.00000E+00 0.00000E+00
 -1        19 0.00000E+00 0.00000E+00 0.00000E+00
 -1        20 0.00000E+00 0.00000E+00 0.00000E+00
 -1        33 3.49097E-05-1.35907E-04-1.85758E-04
 -1        34 1.87162E-05-4.26025E-04-3.28690E-04
 -1        35 1.35665E-05-8.48535E-04-4.20953E-04
 -1        36 2.16280E-06-1.32623E-03-4.64933E-04
 -1        37-4.43707E-07-1.82858E-03-4.67878E-04
 -1        38-9.40214E-06-2.30869E-03-4.35425E-04
 -1        39-3.39890E-05-2.75055E-03-3.19869E-04
 -1        40-4.44705E-05-3.00646E-03-1.55215E-04
 -1        41 1.96383E-05-3.02176E-03-3.27313E-05
 -1        42 5.04175E-05-3.04690E-03-7.72990E-05
 -1        43-1.17716E-04-3.01871E-03 3.47012E-05
 -1        44-4.01025E-04-3.09734E-03 2.84322E-04
 -1        51 4.00953E-04-3.09735E-03 2.84348E-04
 -1        52 1.17654E-04-3.01869E-03 3.47247E-05
 -1        53-5.05146E-05-3.04690E-03-7.72922E-05
 -1        54-1.97191E-05-3.02175E-03-3.27289E-05
 -1        55 4.43842E-05-3.00645E-03-1.55221E-04
 -1        56 3.39174E-05-2.75054E-03-3.19877E-04
 -1        57 9.33749E-06-2.30869E-03-4.35436E-04
 -1        58 3.94577E-07-1.82858E-03-4.67889E-04
 -1        59-2.19972E-06-1.32623E-03-4.64945E-04
 -1        60-1.35896E-05-8.48533E-04-4.20963E-04
 -1        61-1.87284E-05-4.26025E-04-3.28698E-04
 -1        62-3.49136E-05-1.35907E-04-1.85762E-04
 -1        63-3.43463E-05-1.35088E-04 1.83412E-04
 -1        64-1.87857E-05-4.26033E-04 3.23277E-04
 -1        65-1.23895E-05-8.48103E-04 4.14229E-04
 -1        66-3.11035E-06-1.33161E-03 4.55211E-04
 -1        67 1.43825E-06-1.82249E-03 4.57014E-04
 -1        68 5.44739E-06-2.31453E-03 4.15763E-04
 -1        69 4.30152E-05-2.75188E-03 3.01911E-04
 -1        70 5.61464E-05-3.07572E-03 1.40371E-04
 -1        71-3.97583E-05-2.94752E-03 1.65674E-05
 -1        72-1.48956E-04-2.89222E-03 1.59879E-05
 -1        73 2.55089E-04-3.25084E-03-1.04348E-04
 -1        74 4.42644E-04-3.69068E-03-3.22684E-04
 -1        78 3.43432E-05-1.35087E-04 1.83407E-04
 -1        79 1.87758E-05-4.26031E-04 3.23269E-04
 -1        80 1.23691E-05-8.48101E-04 4.14218E-04
 -1        81 3.07869E-06-1.33161E-03 4.55199E-04
 -1        82-1.48316E-06-1.82248E-03 4.57002E-04
 -1        83-5.50253E-06-2.31453E-03 4.15753E-04
 -1        84-4.30824E-05-2.75188E-03 3.01903E-04
 -1        85-5.62161E-05-3.07572E-03 1.40369E-04
 -1        86 3.96812E-05-2.94752E-03 1.65658E-05
 -1        87 1.48891E-04-2.89223E-03 1.59908E-05
 -1        88-2.55158E-04-3.25082E-03-1.04339E-04
 -1        89-4.42680E-04-3.69069E-03-3.22658E-04
 -1        93 0.00000E+00 0.00000E+00 0.00000E+00
 -1        94 0.00000E+00 0.00000E+00 0.00000E+00
 -1        95 0.00000E+00 0.00000E+00 0.00000E+00
 -1        96 0.00000E+00 0.00000E+00 0.00000E+00
 -1        97 0.00000E+00 0.00000E+00 0.00000E+00
 -1       103-1.74493E-09-1.50020E-04-1.83001E-04
 -1       104-9.18397E-06-4.38177E-04-3.32106E-04
 -1       105-5.81287E-09-4.39713E-04-3.33534E-04
 -1       106 9.17216E-06-4.38177E-04-3.32102E-04
 -1       107-1.16153E-08-8.52593E-04-4.22835E-04
 -1       108-9.45344E-07-1.32695E-03-4.66789E-04
 -1       109-1.77166E-08-1.33752E-03-4.66569E-04
 -1       110 9.09170E-07-1.32695E-03-4.66784E-04
 -1       111-2.51247E-08-1.82195E-03-4.70789E-04
 -1       112 3.56960E-06-2.34145E-03-4.35251E-04
 -1       113-3.03500E-08-2.33726E-03-4.32828E-04
 -1       114-3.63232E-06-2.34146E-03-4.35246E-04
 -1       115-3.75034E-08-2.70888E-03-3.27106E-04
 -1       116 2.65535E-05-2.98261E-03-1.53567E-04
 -1       117-3.80076E-08-3.11686E-03-1.47529E-04
 -1       118-2.66348E-05-2.98261E-03-1.53564E-04
 -1       119-4.44221E-08-3.03527E-03-3.41331E-05
 -1       120-4.73736E-05-3.30779E-03-5.58071E-05
 -1       121-3.38030E-08-3.14931E-03-5.31891E-05
 -1       122 4.72910E-05-3.30779E-03-5.58107E-05
 -1       123-4.34463E-08-2.86607E-03 1.22516E-05
 -1       124 2.83515E-04-2.19641E-03 2.68972E-04
 -1       125 3.26949E-10-2.85993E-03 2.93709E-04
 -1       126-2.83551E-04-2.19641E-03 2.68956E-04
 -1       132 3.58650E-07-1.15651E-04-1.16545E-06
 -1       133 9.50744E-06-4.19109E-04-1.56142E-04
 -1       134 5.78701E-07-4.23141E-04-1.85255E-06
 -1       135-9.26428E-06-4.19467E-04 1.51537E-04
 -1       136-3.49725E-07-8.36796E-04-3.85388E-06
 -1       137 2.44593E-06-1.32893E-03-2.30826E-04
 -1       138 2.41664E-07-1.32286E-03-4.51804E-06
 -1       139-1.73059E-06-1.33021E-03 2.21513E-04
 -1       140 1.03811E-06-1.83851E-03-6.54107E-06
 -1       141-8.16735E-06-2.30138E-03-2.03746E-04
 -1       142 4.96547E-06-2.32538E-03-2.98873E-06
 -1       143 7.53303E-06-2.30976E-03 1.90615E-04
 -1       144-7.84745E-06-2.74060E-03-8.26029E-06
 -1       145-7.35348E-06-3.05011E-03-1.00271E-04
 -1       146-1.38157E-05-2.95467E-03-1.54355E-05
 -1       147 8.55386E-06-3.06474E-03 7.75725E-05
 -1       148 2.52571E-05-3.11735E-03-1.73751E-05
 -1       149-4.16488E-05-2.80810E-03-1.37904E-05
 -1       150 8.27285E-05-3.01941E-03 2.41815E-06
 -1       151 2.10613E-05-2.78787E-03-1.25206E-05
 -1       152-1.15343E-04-2.94662E-03 4.38927E-06
 -1       153 1.63126E-04-3.41280E-03 1.29080E-04
 -1       154-1.47979E-04-2.05446E-03 1.19996E-08
 -1       155-9.36387E-05-3.50525E-03-1.62284E-04
 -1       161-1.24129E-09-1.49473E-04 1.80347E-04
 -1       162-9.07149E-06-4.37949E-04 3.27427E-04
 -1       163-5.02194E-09-4.38112E-04 3.28880E-04
 -1       164 9.06165E-06-4.37948E-04 3.27423E-04
 -1       165-9.97222E-09-8.52981E-04 4.15745E-04
 -1       166-2.02634E-06-1.32557E-03 4.57629E-04
 -1       167-1.62806E-08-1.33441E-03 4.60411E-04
 -1       168 1.99425E-06-1.32557E-03 4.57624E-04
 -1       169-2.21846E-08-1.82304E-03 4.55830E-04
 -1       170 4.41303E-06-2.34076E-03 4.21736E-04
 -1       171-2.88091E-08-2.31057E-03 4.17862E-04
 -1       172-4.46950E-06-2.34076E-03 4.21731E-04
 -1       173-3.28429E-08-2.72710E-03 3.06841E-04
 -1       174 2.17021E-05-2.93142E-03 1.34118E-04
 -1       175-3.82092E-08-3.02750E-03 1.43824E-04
 -1       176-2.17751E-05-2.93142E-03 1.34117E-04
 -1       177-3.69098E-08-3.00137E-03 5.00540E-06
 -1       178-5.08529E-05-3.36973E-03 1.36982E-05
 -1       179-4.09676E-08-2.98158E-03-4.48714E-06
 -1       180 5.07790E-05-3.36973E-03 1.37026E-05
 -1       181-2.67260E-08-3.05339E-03-6.16917E-05
 -1       182 1.30148E-04-1.92221E-03-3.01451E-04
 -1       183-4.05569E-08-3.45130E-03-3.30978E-04
 -1       184-1.30205E-04-1.92221E-03-3.01452E-04
 -1       190-3.62535E-07-1.15650E-04-1.17013E-06
 -1       191 9.25364E-06-4.19466E-04 1.51529E-04
 -1       192-5.89919E-07-4.23140E-04-1.86104E-06
 -1       193-9.51925E-06-4.19109E-04-1.56151E-04
 -1       194 3.27741E-07-8.36794E-04-3.86466E-06
 -1       195 1.69770E-06-1.33021E-03 2.21501E-04
 -1       196-2.75743E-07-1.32286E-03-4.52996E-06
 -1       197-2.48145E-06-1.32893E-03-2.30838E-04
 -1       198-1.08526E-06-1.83851E-03-6.55291E-06
 -1       199-7.58997E-06-2.30976E-03 1.90604E-04
 -1       200-5.02444E-06-2.32537E-03-2.99924E-06
 -1       201 8.10563E-06-2.30138E-03-2.03757E-04
 -1       202 7.77787E-06-2.74060E-03-8.26830E-06
 -1       203-8.62680E-06-3.06474E-03 7.75686E-05
 -1       204 1.37398E-05-2.95466E-03-1.54398E-05
 -1       205 7.27241E-06-3.05010E-03-1.00276E-04
 -1       206-2.53370E-05-3.11734E-03-1.73745E-05
 -1       207-2.11300E-05-2.78786E-03-1.25123E-05
 -1       208-8.28043E-05-3.01939E-03 2.42557E-06
 -1       209 4.15626E-05-2.80809E-03-1.37857E-05
 -1       210 1.15275E-04-2.94663E-03 4.40357E-06
 -1       211 9.35920E-05-3.50523E-03-1.62274E-04
 -1       212 1.47933E-04-2.05442E-03 3.55321E-08
 -1       213-1.63184E-04-3.41278E-03 1.29116E-04
 -1       219-1.66429E-09-1.29988E-04-1.01716E-06
 -1       220-5.75988E-09-4.30702E-04-1.59722E-04
 -1       221-2.35994E-07-4.32088E-04-2.47753E-06
 -1       222-5.59798E-09-4.32372E-04-2.67362E-06
 -1       223 2.24902E-07-4.32089E-04-2.47348E-06
 -1       224-5.36450E-09-4.29814E-04 1.55020E-04
 -1       225-1.08456E-08-8.44489E-04-3.35106E-06
 -1       226-1.74360E-08-1.33312E-03-2.32839E-04
 -1       227-4.02959E-07-1.32211E-03-4.65325E-06
 -1       228-1.71539E-08-1.32202E-03-6.26018E-06
 -1       229 3.68769E-07-1.32211E-03-4.64744E-06
 -1       230-1.67182E-08-1.33181E-03 2.22581E-04
 -1       231-2.35201E-08-1.83883E-03-4.86399E-06
 -1       232-3.00771E-08-2.31361E-03-2.08338E-04
 -1       233-1.35241E-06-2.31905E-03-9.09390E-06
 -1       234-2.98199E-08-2.31244E-03-1.05117E-05
 -1       235 1.29305E-06-2.31906E-03-9.08877E-06
 -1       236-2.92847E-08-2.29904E-03 1.93971E-04
 -1       237-3.48044E-08-2.73168E-03-4.29813E-06
 -1       238-3.82557E-08-3.09001E-03-9.21938E-05
 -1       239 3.20085E-06-2.94381E-03-9.48750E-06
 -1       240-3.87742E-08-2.95550E-03-1.55973E-05
 -1       241-3.27763E-06-2.94382E-03-9.48565E-06
 -1       242-3.84985E-08-3.04812E-03 6.70866E-05
 -1       243-3.96845E-08-3.10994E-03-1.73618E-05
 -1       244-3.69051E-08-2.90989E-03-1.12076E-05
 -1       245-1.95638E-05-3.10075E-03-1.60584E-05
 -1       246-3.93153E-08-3.09097E-03-1.09453E-05
 -1       247 1.94863E-05-3.10075E-03-1.60618E-05
 -1       248-3.96692E-08-2.83620E-03-6.40760E-06
 -1       249-3.35367E-08-2.85925E-03 6.26984E-06
 -1       250-1.14225E-08-3.42134E-03 1.05809E-04
 -1       251-1.06693E-05-2.05704E-03 1.59646E-05
 -1       252-2.73339E-08-2.39845E-03 1.32060E-05
 -1       253 1.06193E-05-2.05707E-03 1.59505E-05
 -1       254-3.57538E-08-3.67672E-03-1.86928E-04
 -3
    1PSTEP                         2           2           1          
  100CL  102 1.00000E-02         201                     1    2           1
 -4  DISP        4    1
 -5  D1          1    2    1    0
 -5  D2          1    2    2    0
 -5  D3          1    2    3    0
 -5  ALL         1    2    0    0    1ALL
 -1         1 0.00000E+00 0.00000E+00 0.00000E+00
 -1         2 0.00000E+00 0.00000E+00 0.00000E+00
 -1         3 0.00000E+00 0.00000E+00 0.00000E+00
 -1         4 0.00000E+00 0.00000E+00 0.00000E+00
 -1         9 0.00000E+00 0.00000E+00 0.00000E+00
 -1        10 0.00000E+00 0.00000E+00 0.00000E+00
 -1        11 0.00000E+00 0.00000E+00 0.00000E+00
 -1        12 0.00000E+00 0.00000E+00 0.00000E+00
 -1        13 0.00000E+00 0.00000E+00 0.00000E+00
 -1        14 0.00000E+00 0.00000E+00 0.00000E+00
 -1        15 0.00000E+00 0.00000E+00 0.00000E+00
 -1        16 0.00000E+00 0.00000E+00 0.00000E+00
 -1        17 0.00000E+00 0.00000E+00 0.00000E+00
 -1        18 0.00000E+00 0.00000E+00 0.00000E+00
 -1        19 0.00000E+00 0.00000E+00 0.00000E+00
 -1        20 0.00000E+00 0.00000E+00 0.00000E+00
 -1        33-1.74503E-05 6.91917E-05 9.36912E-05
 -1        34-9.25228E-06 2.16921E-04 1.65171E-04
 -1        35-6.88798E-06 4.29980E-04 2.11566E-04
 -1        36-2.10687E-06 6.72585E-04 2.32661E-04
 -1        37 2.42770E-06 9.27716E-04 2.32849E-04
 -1        38 7.82566E-06 1.17627E-03 2.10754E-04
 -1        39 1.40139E-05 1.37877E-03 1.54246E-04
 -1        40 1.04939E-05 1.51300E-03 6.91754E-05
 -1        41 1.44538E-05 1.54290E-03 7.84470E-06
 -1        42 1.08022E-05 1.56829E-03-7.39815E-06
 -1        43-1.02623E-06 1.40852E-03-4.93833E-05
 -1        44-6.91150E-05 1.32907E-03-1.50393E-04
 -1        51 6.91954E-05 1.32894E-03-1.50348E-04
 -1        52 1.13102E-06 1.40848E-03-4.93654E-05
 -1        53-1.08017E-05 1.56828E-03-7.42207E-06
 -1        54-1.43854E-05 1.54288E-03 7.84516E-06
 -1        55-1.04567E-05 1.51298E-03 6.91802E-05
 -1        56-1.39643E-05 1.37876E-03 1.54253E-04
 -1        57-7.79754E-06 1.17626E-03 2.10757E-04
 -1        58-2.39677E-06 9.27706E-04 2.32855E-04
 -1        59 2.12576E-06 6.72576E-04 2.32666E-04
 -1        60 6.90313E-06 4.29975E-04 2.11570E-04
 -1        61 9.25923E-06 2.16918E-04 1.65174E-04
 -1        62 1.74536E-05 6.91903E-05 9.36930E-05
 -1        63 1.74467E-05 6.91897E-05-9.36811E-05
 -1        64 9.25353E-06 2.16923E-04-1.65147E-04
 -1        65 6.90116E-06 4.29969E-04-2.11533E-04
 -1        66 2.13402E-06 6.72597E-04-2.32615E-04
 -1        67-2.45698E-06 9.27730E-04-2.32801E-04
 -1        68-7.86871E-06 1.17636E-03-2.10665E-04
 -1        69-1.38201E-05 1.37860E-03-1.54143E-04
 -1        70-1.02232E-05 1.51301E-03-6.90945E-05
 -1        71-1.51297E-05 1.54335E-03-7.79536E-06
 -1        72-1.21445E-05 1.56916E-03 7.66539E-06
 -1        73 4.28502E-06 1.40601E-03 4.98651E-05
 -1        74 7.53538E-05 1.32525E-03 1.50580E-04
 -1        78-1.74471E-05 6.91875E-05-9.36792E-05