    1C
    1UUSER                                                              
    1UDATE              18.july.2018                                    
    1UTIME              00:29:11                                        
    1UHOST                                                              
    1UPGM               CalculiX                                        
    1UVERSION           Version 2.13                             
    1UCOMPILETIME       jue jun 14 00:40:39 CEST 2018                    
    1UDIR                                                               
    1UDBN                                                               
    1UMAT    1EL                                                        
    2C                            81                                     1
 -1         5 0.00000E+00 0.00000E+00 8.00000E+00
 -1         6 1.00000E+00 0.00000E+00 8.00000E+00
 -1         7 1.00000E+00 1.00000E+00 8.00000E+00
 -1         8 0.00000E+00 1.00000E+00 8.00000E+00
 -1        21 2.50000E-01 0.00000E+00 8.00000E+00
 -1        22 5.00000E-01 0.00000E+00 8.00000E+00
 -1        23 7.50000E-01 0.00000E+00 8.00000E+00
 -1        24 1.00000E+00 2.50000E-01 8.00000E+00
 -1        25 1.00000E+00 5.00000E-01 8.00000E+00
 -1        26 1.00000E+00 7.50000E-01 8.00000E+00
 -1        27 7.50000E-01 1.00000E+00 8.00000E+00
 -1        28 5.00000E-01 1.00000E+00 8.00000E+00
 -1        29 2.50000E-01 1.00000E+00 8.00000E+00
 -1        30 0.00000E+00 7.50000E-01 8.00000E+00
 -1        31 0.00000E+00 5.00000E-01 8.00000E+00
 -1        32 0.00000E+00 2.50000E-01 8.00000E+00
 -1        44 1.00000E+00 0.00000E+00 6.00000E+00
 -1        45 1.00000E+00 0.00000E+00 6.50000E+00
 -1        46 1.00000E+00 0.00000E+00 7.00000E+00
 -1        47 1.00000E+00 0.00000E+00 7.50000E+00
 -1        48 0.00000E+00 0.00000E+00 7.50000E+00
 -1        49 0.00000E+00 0.00000E+00 7.00000E+00
 -1        50 0.00000E+00 0.00000E+00 6.50000E+00
 -1        51 0.00000E+00 0.00000E+00 6.00000E+00
 -1        74 1.00000E+00 1.00000E+00 6.00000E+00
 -1        75 1.00000E+00 1.00000E+00 6.50000E+00
 -1        76 1.00000E+00 1.00000E+00 7.00000E+00
 -1        77 1.00000E+00 1.00000E+00 7.50000E+00
 -1        89 0.00000E+00 1.00000E+00 6.00000E+00
 -1        90 0.00000E+00 1.00000E+00 6.50000E+00
 -1        91 0.00000E+00 1.00000E+00 7.00000E+00
 -1        92 0.00000E+00 1.00000E+00 7.50000E+00
 -1        98 5.00000E-01 2.50000E-01 8.00000E+00
 -1        99 2.50000E-01 5.00000E-01 8.00000E+00
 -1       100 5.00000E-01 5.00000E-01 8.00000E+00
 -1       101 7.50000E-01 5.00000E-01 8.00000E+00
 -1       102 5.00000E-01 7.50000E-01 8.00000E+00
 -1       124 2.50000E-01 0.00000E+00 6.00000E+00
 -1       125 5.00000E-01 0.00000E+00 6.00000E+00
 -1       126 7.50000E-01 0.00000E+00 6.00000E+00
 -1       127 5.00000E-01 0.00000E+00 6.50000E+00
 -1       128 2.50000E-01 0.00000E+00 7.00000E+00
 -1       129 5.00000E-01 0.00000E+00 7.00000E+00
 -1       130 7.50000E-01 0.00000E+00 7.00000E+00
 -1       131 5.00000E-01 0.00000E+00 7.50000E+00
 -1       153 1.00000E+00 2.50000E-01 6.00000E+00
 -1       154 1.00000E+00 5.00000E-01 6.00000E+00
 -1       155 1.00000E+00 7.50000E-01 6.00000E+00
 -1       156 1.00000E+00 5.00000E-01 6.50000E+00
 -1       157 1.00000E+00 2.50000E-01 7.00000E+00
 -1       158 1.00000E+00 5.00000E-01 7.00000E+00
 -1       159 1.00000E+00 7.50000E-01 7.00000E+00
 -1       160 1.00000E+00 5.00000E-01 7.50000E+00
 -1       182 7.50000E-01 1.00000E+00 6.00000E+00
 -1       183 5.00000E-01 1.00000E+00 6.00000E+00
 -1       184 2.50000E-01 1.00000E+00 6.00000E+00
 -1       185 5.00000E-01 1.00000E+00 6.50000E+00
 -1       186 7.50000E-01 1.00000E+00 7.00000E+00
 -1       187 5.00000E-01 1.00000E+00 7.00000E+00
 -1       188 2.50000E-01 1.00000E+00 7.00000E+00
 -1       189 5.00000E-01 1.00000E+00 7.50000E+00
 -1       211 0.00000E+00 7.50000E-01 6.00000E+00
 -1       212 0.00000E+00 5.00000E-01 6.00000E+00
 -1       213 0.00000E+00 2.50000E-01 6.00000E+00
 -1       214 0.00000E+00 5.00000E-01 6.50000E+00
 -1       215 0.00000E+00 7.50000E-01 7.00000E+00
 -1       216 0.00000E+00 5.00000E-01 7.00000E+00
 -1       217 0.00000E+00 2.50000E-01 7.00000E+00
 -1       218 0.00000E+00 5.00000E-01 7.50000E+00
 -1       250 5.00000E-01 2.50000E-01 6.00000E+00
 -1       251 2.50000E-01 5.00000E-01 6.00000E+00
 -1       252 5.00000E-01 5.00000E-01 6.00000E+00
 -1       253 7.50000E-01 5.00000E-01 6.00000E+00
 -1       254 5.00000E-01 7.50000E-01 6.00000E+00
 -1       255 5.00000E-01 5.00000E-01 6.50000E+00
 -1       256 5.00000E-01 2.50000E-01 7.00000E+00
 -1       257 2.50000E-01 5.00000E-01 7.00000E+00
 -1       258 5.00000E-01 5.00000E-01 7.00000E+00
 -1       259 7.50000E-01 5.00000E-01 7.00000E+00
 -1       260 5.00000E-01 7.50000E-01 7.00000E+00
 -1       261 5.00000E-01 5.00000E-01 7.50000E+00
 -3
    3C                             8                                     1
 -1        25    4    0    1
 -2        51       125       252       212        49       129       258       216       124       250
 -2       251       213        50       127       255       214       128       256       257       217
 -1        26    4    0    1
 -2       125        44       154       252       129        46       158       258       126       153
 -2       253       250       127        45       156       255       130       157       259       256
 -1        27    4    0    1
 -2       212       252       183        89       216       258       187        91       251       254
 -2       184       211       214       255       185        90       257       260       188       215
 -1        28    4    0    1
 -2       252       154        74       183       258       158        76       187       253       155
 -2       182       254       255       156        75       185       259       159       186       260
 -1        29    4    0    1
 -2        49       129       258       216         5        22       100        31       128       256
 -2       257       217        48       131       261       218        21        98        99        32
 -1        30    4    0    1
 -2       129        46       158       258        22         6        25       100       130       157
 -2       259       256       131        47       160       261        23        24       101        98
 -1        31    4    0    1
 -2       216       258       187        91        31       100        28         8       257       260
 -2       188       215       218       261       189        92        99       102        29        30
 -1        32    4    0    1
 -2       258       158        76       187       100        25         7        28       259       159
 -2       186       260       261       160        77       189       101        26        27       102
 -3
    1PSTEP                         1           1           1          
  100CL  101 5.00000E-03          81                     1    1           1
 -4  DISP        4    1
 -5  D1          1    2    1    0
 -5  D2          1    2    2    0
 -5  D3          1    2    3    0
 -5  ALL         1    2    0    0    1ALL
 -1         5 0.00000E+00 0.00000E+00 0.00000E+00
 -1         6 0.00000E+00 0.00000E+00 0.00000E+00
 -1         7 0.00000E+00 0.00000E+00 0.00000E+00
 -1         8 0.00000E+00 0.00000E+00 0.00000E+00
 -1        21 0.00000E+00 0.00000E+00 0.00000E+00
 -1        22 0.00000E+00 0.00000E+00 0.00000E+00
 -1        23 0.00000E+00 0.00000E+00 0.00000E+00
 -1        24 0.00000E+00 0.00000E+00 0.00000E+00
 -1        25 0.00000E+00 0.00000E+00 0.00000E+00
 -1        26 0.00000E+00 0.00000E+00 0.00000E+00
 -1        27 0.00000E+00 0.00000E+00 0.00000E+00
 -1        28 0.00000E+00 0.00000E+00 0.00000E+00
 -1        29 0.00000E+00 0.00000E+00 0.00000E+00
 -1        30 0.00000E+00 0.00000E+00 0.00000E+00
 -1        31 0.00000E+00 0.00000E+00 0.00000E+00
 -1        32 0.00000E+00 0.00000E+00 0.00000E+00
 -1        44-4.01078E-04-3.09743E-03 2.84322E-04
 -1        45-1.51005E-04-2.37626E-03 6.39775E-04
 -1        46 4.52274E-05-1.56248E-03 7.80792E-04
 -1        47 1.20576E-04-6.08834E-04 5.21422E-04
 -1        48-1.20582E-04-6.08834E-04 5.21436E-04
 -1        49-4.52610E-05-1.56249E-03 7.80822E-04
 -1        50 1.50951E-04-2.37626E-03 6.39801E-04
 -1        51 4.00961E-04-3.09742E-03 2.84361E-04
 -1        74 4.42649E-04-3.69077E-03-3.22752E-04
 -1        75 2.62700E-04-2.59363E-03-6.23661E-04
 -1        76-1.46379E-04-1.46424E-03-7.68705E-04
 -1        77-1.65802E-04-5.11845E-04-5.39338E-04
 -1        89-4.42764E-04-3.69075E-03-3.22676E-04
 -1        90-2.62756E-04-2.59363E-03-6.23611E-04
 -1        91 1.46354E-04-1.46424E-03-7.68688E-04
 -1        92 1.65794E-04-5.11841E-04-5.39327E-04
 -1        98 0.00000E+00 0.00000E+00 0.00000E+00
 -1        99 0.00000E+00 0.00000E+00 0.00000E+00
 -1       100 0.00000E+00 0.00000E+00 0.00000E+00
 -1       101 0.00000E+00 0.00000E+00 0.00000E+00
 -1       102 0.00000E+00 0.00000E+00 0.00000E+00
 -1       124 2.83503E-04-2.19649E-03 2.68997E-04
 -1       125-3.57375E-08-2.86004E-03 2.93736E-04
 -1       126-2.83596E-04-2.19649E-03 2.68976E-04
 -1       127-3.23278E-08-2.20187E-03 6.79468E-04
 -1       128-4.22135E-05-1.78807E-03 7.81664E-04
 -1       129-9.21216E-09-1.63278E-03 7.63959E-04
 -1       130 4.21876E-05-1.78807E-03 7.81649E-04
 -1       131-3.58959E-09-6.87267E-04 5.20817E-04
 -1       153 1.63100E-04-3.41287E-03 1.29071E-04
 -1       154-1.47992E-04-2.05452E-03-3.14626E-09
 -1       155-9.36499E-05-3.50533E-03-1.62322E-04
 -1       156-1.07483E-04-2.29611E-03-3.94157E-05
 -1       157-3.62774E-05-1.34777E-03 3.14496E-04
 -1       158 8.33539E-05-1.55984E-03-2.24203E-05
 -1       159 4.34800E-05-1.35819E-03-3.25525E-04
 -1       160 3.56210E-05-6.65519E-04 7.06998E-06
 -1       182 1.30149E-04-1.92231E-03-3.01519E-04
 -1       183-6.00363E-08-3.45140E-03-3.31042E-04
 -1       184-1.30263E-04-1.92229E-03-3.01499E-04
 -1       185-2.71529E-08-2.45902E-03-6.45500E-04
 -1       186-5.24352E-05-1.97008E-03-8.07137E-04
 -1       187-1.41044E-08-1.67470E-03-7.91144E-04
 -1       188 5.24084E-05-1.97008E-03-8.07124E-04
 -1       189-2.42604E-09-6.79174E-04-5.36955E-04
 -1       211 9.35401E-05-3.50531E-03-1.62278E-04
 -1       212 1.47895E-04-2.05449E-03 3.71822E-08
 -1       213-1.63205E-04-3.41285E-03 1.29126E-04
 -1       214 1.07423E-04-2.29611E-03-3.93804E-05
 -1       215-4.35054E-05-1.35819E-03-3.25501E-04
 -1       216-8.33806E-05-1.55984E-03-2.23950E-05
 -1       217 3.62465E-05-1.34777E-03 3.14520E-04
 -1       218-3.56298E-05-6.65519E-04 7.08247E-06
 -1       250-4.13018E-08-3.42143E-03 1.05814E-04
 -1       251-1.06973E-05-2.05712E-03 1.59557E-05
 -1       252-4.96482E-08-2.39854E-03 1.31925E-05
 -1       253 1.05989E-05-2.05714E-03 1.59347E-05
 -1       254-5.69338E-08-3.67680E-03-1.86962E-04
 -1       255-2.92076E-08-2.20542E-03-3.09262E-05
 -1       256-1.16600E-08-1.43389E-03 3.35247E-04
 -1       257-2.58357E-05-1.65448E-03-1.26348E-05
 -1       258-1.32400E-08-1.65151E-03-1.45665E-05
 -1       259 2.58096E-05-1.65448E-03-1.26470E-05
 -1       260-1.34700E-08-1.45802E-03-3.45747E-04
 -1       261-3.41158E-09-6.99256E-04-2.85959E-07
 -3
    1PSTEP                         2           2           1          
  100CL  102 1.00000E-02          81                     1    2           1
 -4  DISP        4    1
 -5  D1          1    2    1    0
 -5  D2          1    2    2    0
 -5  D3          1    2    3    0
 -5  ALL         1    2    0    0    1ALL
 -1         5 0.00000E+00 0.00000E+00 0.00000E+00
 -1         6 0.00000E+00 0.00000E+00 0.00000E+00
 -1         7 0.00000E+00 0.00000E+00 0.00000E+00
 -1         8 0.00000E+00 0.00000E+00 0.00000E+00
 -1        21 0.00000E+00 0.00000E+00 0.00000E+00
 -1        22 0.00000E+00 0.00000E+00 0.00000E+00
 -1        23 0.00000E+00 0.00000E+00 0.00000E+00
 -1        24 0.00000E+00 0.00000E+00 0.00000E+00
 -1        25 0.00000E+00 0.00000E+00 0.00000E+00
 -1        26 0.00000E+00 0.00000E+00 0.00000E+00
 -1        27 0.00000E+00 0.00000E+00 0.00000E+00
 -1        28 0.00000E+00 0.00000E+00 0.00000E+00
 -1        29 0.00000E+00 0.00000E+00 0.00000E+00
 -1        30 0.00000E+00 0.00000E+00 0.00000E+00
 -1        31 0.00000E+00 0.00000E+00 0.00000E+00
 -1        32 0.00000E+00 0.00000E+00 0.00000E+00
 -1        44-6.91603E-05 1.32896E-03-1.50366E-04
 -1        45 1.38008E-05 1.09264E-03-3.02862E-04
 -1        46 1.73875E-05 8.39116E-04-3.57443E-04
 -1        47-3.46182E-05 3.48697E-04-2.69927E-04
 -1        48 3.46240E-05 3.48699E-04-2.69940E-04
 -1        49-1.74205E-05 8.39110E-04-3.57451E-04
 -1        50-1.37069E-05 1.09260E-03-3.02851E-04
 -1        51 6.91305E-05 1.32888E-03-1.50305E-04
 -1        74 7.53123E-05 1.32529E-03 1.50574E-04
 -1        75-1.04848E-05 1.09005E-03 3.02720E-04
 -1        76-1.85431E-05 8.40091E-04 3.57353E-04
 -1        77 3.38030E-05 3.49254E-04 2.70028E-04
 -1        89-7.52704E-05 1.32540E-03 1.50607E-04
 -1        90 1.05263E-05 1.09007E-03 3.02724E-04
 -1        91 1.85195E-05 8.40086E-04 3.57361E-04
 -1        92-3.38046E-05 3.49245E-04 2.70024E-04
 -1        98 0.00000E+00 0.00000E+00 0.00000E+00
 -1        99 0.00000E+00 0.00000E+00 0.00000E+00
 -1       100 0.00000E+00 0.00000E+00 0.00000E+00
 -1       101 0.00000E+00 0.00000E+00 0.00000E+00
 -1       102 0.00000E+00 0.00000E+00 0.00000E+00
 -1       124 5.26194E-06 1.15223E-03-1.36565E-04
 -1       125 1.12849E-07 1.42102E-03-1.57979E-04
 -1       126-5.18226E-06 1.15222E-03-1.36505E-04
 -1       127-1.46862E-08 1.13170E-03-3.13777E-04
 -1       128-2.43461E-06 8.79382E-04-3.85683E-04
 -1       129 3.71541E-08 8.05417E-04-3.88874E-04
 -1       130 2.46032E-06 8.79392E-04-3.85702E-04
 -1       131-2.32567E-09 3.46785E-04-2.62474E-04
 -1       153 9.69417E-05 1.71306E-03-6.75669E-05
 -1       154 1.68731E-06 1.38283E-03 2.24761E-07
 -1       155-9.94863E-05 1.70884E-03 6.77037E-05
 -1       156 2.25125E-07 1.18318E-03-3.26297E-07
 -1       157-2.17356E-05 7.20799E-04-1.51692E-04
 -1       158-5.05132E-07 7.82541E-04-1.52295E-07
 -1       159 2.21401E-05 7.21840E-04 1.51722E-04
 -1       160-7.91638E-08 3.15476E-04-1.78495E-08
 -1       182 9.99955E-06 1.15312E-03 1.36628E-04
 -1       183 7.06940E-08 1.42173E-03 1.57882E-04
 -1       184-9.92776E-06 1.15314E-03 1.36638E-04
 -1       185-5.67046E-09 1.13323E-03 3.14911E-04
 -1       186-3.31604E-06 8.79815E-04 3.85811E-04
 -1       187 1.49480E-08 8.06095E-04 3.89465E-04
 -1       188 3.32439E-06 8.79818E-04 3.85819E-04
 -1       189-4.00516E-09 3.46640E-04 2.62484E-04
 -1       211 9.94790E-05 1.70891E-03 6.77300E-05
 -1       212-1.69012E-06 1.38283E-03 1.95168E-07
 -1       213-9.69891E-05 1.71300E-03-6.75392E-05
 -1       214-2.42270E-07 1.18317E-03-3.36771E-07
 -1       215-2.21347E-05 7.21830E-04 1.51718E-04
 -1       216 5.32157E-07 7.82530E-04-1.54302E-07
 -1       217 2.17374E-05 7.20794E-04-1.51703E-04
 -1       218 8.03548E-08 3.15472E-04-1.31703E-08
 -1       250 2.28208E-08 1.61388E-03-7.19021E-05
 -1       251 1.82769E-06 9.62147E-04 1.81499E-07
 -1       252-8.12340E-08 1.24274E-03 4.35516E-08
 -1       253-1.89329E-06 9.62149E-04 1.79437E-07
 -1       254-2.94756E-09 1.61907E-03 7.19576E-05
 -1       255 1.08104E-08 1.18206E-03 1.39824E-07
 -1       256 1.08407E-08 7.07991E-04-1.71837E-04
 -1       257-3.30685E-07 8.55117E-04 1.37029E-08
 -1       258-1.19678E-08 7.54475E-04 7.82713E-08
 -1       259 3.27258E-07 8.55122E-04 1.99308E-08
 -1       260 9.35658E-10 7.07211E-04 1.72007E-04
 -1       261 5.62747E-09 3.35758E-04-6.61512E-09
 -3
    1PSTEP                         3           3           1          
  100CL  103 1.50000E-02          81                     1    3           1
 -4  DISP        4    1
 -5  D1          1    2    1    0
 -5  D2          1    2    2    0
 -5  D3          1    2    3    0
 -5  ALL         1    2    0    0    1ALL
 -1         5 0.00000E+00 0.00000E+00 0.00000E+00
 -1         6 0.00000E+00 0.00000E+00 0.00000E+00
 -1         7 0.00000E+00 0.00000E+00 0.00000E+00
 -1         8 0.00000E+00 0.00000E+00 0.00000E+00
 -1        21 0.00000E+00 0.00000E+00 0.00000E+00
 -1        22 0.00000E+00 0.00000E+00 0.00000E+00
 -1        23 0.00000E+00 0.00000E+00 0.00000E+00
 -1        24 0.00000E+00 0.00000E+00 0.00000E+00
 -1        25 0.00000E+00 0.00000E+00 0.00000E+00
 -1        26 0.00000E+00 0.00000E+00 0.00000E+00
 -1        27 0.00000E+00 0.00000E+00 0.00000E+00
 -1        28 0.00000E+00 0.00000E+00 0.00000E+00
 -1        29 0.00000E+00 0.00000E+00 0.00000E+00
 -1        30 0.00000E+00 0.00000E+00 0.00000E+00
 -1        31 0.00000E+00 0.00000E+00 0.00000E+00
 -1        32 0.00000E+00 0.00000E+00 0.00000E+00
 -1        44 5.49072E-05-1.05308E-03 1.19309E-04
 -1        45-1.11415E-05-8.65685E-04 2.40004E-04
 -1        46-1.36642E-05-6.65016E-04 2.83087E-04
 -1        47 2.74915E-05-2.76395E-04 2.13963E-04
 -1        48-2.74758E-05-2.76397E-04 2.13945E-04
 -1        49 1.36766E-05-6.64998E-04 2.83069E-04
 -1        50 1.12930E-05-8.65768E-04 2.39979E-04
 -1        51-5.47148E-05-1.05318E-03 1.19263E-04
 -1        74-5.97674E-05-1.04813E-03-1.19278E-04
 -1        75 8.40628E-06-8.62817E-04-2.40102E-04
 -1        76 1.47738E-05-6.66166E-04-2.83053E-04
 -1        77-2.66864E-05-2.77195E-04-2.13916E-04
 -1        89 5.99664E-05-1.04799E-03-1.19326E-04
 -1        90-8.31033E-06-8.62830E-04-2.40118E-04
 -1        91-1.47821E-05-6.66182E-04-2.83112E-04
 -1        92 2.66822E-05-2.77210E-04-2.13951E-04
 -1        98 0.00000E+00 0.00000E+00 0.00000E+00
 -1        99 0.00000E+00 0.00000E+00 0.00000E+00
 -1       100 0.00000E+00 0.00000E+00 0.00000E+00
 -1       101 0.00000E+00 0.00000E+00 0.00000E+00
 -1       102 0.00000E+00 0.00000E+00 0.00000E+00
 -1       124-4.34330E-06-9.13075E-04 1.08286E-04
 -1       125 1.73408E-07-1.12645E-03 1.25331E-04
 -1       126 4.58683E-06-9.13082E-04 1.08295E-04
 -1       127 3.48483E-08-8.97094E-04 2.48392E-04
 -1       128 1.99627E-06-6.96806E-04 3.05620E-04
 -1       129 4.97165E-08-6.37975E-04 3.08172E-04
 -1       130-1.93397E-06-6.96804E-04 3.05627E-04
 -1       131 2.63588E-09-2.74750E-04 2.08006E-04
 -1       153-7.73030E-05-1.35839E-03 5.35836E-05
 -1       154-6.79671E-07-1.09784E-03-1.69629E-07
 -1       155 7.90858E-05-1.35481E-03-5.35345E-05
 -1       156 1.86085E-07-9.37667E-04 4.83228E-07
 -1       157 1.73779E-05-5.71248E-04 1.20175E-04
 -1       158 1.75593E-07-6.20099E-04 1.95395E-07
 -1       159-1.76879E-05-5.72027E-04-1.20161E-04
 -1       160-5.85236E-08-2.49874E-04-2.05196E-08
 -1       182-8.27583E-06-9.14867E-04-1.08173E-04
 -1       183 1.36597E-07-1.12478E-03-1.25107E-04
 -1       184 8.48085E-06-9.14845E-04-1.08268E-04
 -1       185 5.96760E-09-8.97392E-04-2.49326E-04
 -1       186 2.80563E-06-6.96461E-04-3.05632E-04
 -1       187 2.67563E-08-6.38336E-04-3.08523E-04
 -1       188-2.77578E-06-6.96460E-04-3.05647E-04
 -1       189-4.93588E-09-2.74661E-04-2.07953E-04
 -1       211-7.89702E-05-1.35477E-03-5.36576E-05
 -1       212 7.73292E-07-1.09792E-03-1.49188E-07
 -1       213 7.73989E-05-1.35850E-03 5.35864E-05
 -1       214-1.43016E-07-9.37662E-04 4.45314E-07
 -1       215 1.77155E-05-5.72057E-04-1.20184E-04
 -1       216-1.23528E-07-6.20138E-04 1.61863E-07
 -1       217-1.73367E-05-5.71255E-04 1.20144E-04
 -1       218 6.75851E-08-2.49880E-04-3.06470E-08
 -1       250 7.07020E-08-1.27817E-03 5.72075E-05
 -1       251-1.64919E-06-7.62011E-04-2.37989E-07
 -1       252-4.75205E-08-9.85836E-04-3.57810E-08
 -1       253 1.66844E-06-7.61960E-04-2.75921E-07
 -1       254 5.05849E-08-1.28153E-03-5.68414E-05
 -1       255 4.53675E-08-9.37493E-04 2.04042E-08
 -1       256 2.16009E-08-5.60905E-04 1.36213E-04
 -1       257 3.84391E-07-6.77747E-04 3.98478E-08
 -1       258-4.12177E-09-5.97108E-04 5.51780E-09
 -1       259-3.68703E-07-6.77730E-04 6.41171E-08
 -1       260 9.87701E-09-5.60143E-04-1.36296E-04
 -1       261 9.52161E-09-2.65826E-04-5.37231E-09
 -3
    1PSTEP                         4           4           1          
  100CL  104 2.00000E-02          81                     1    4           1
 -4  DISP        4    1
 -5  D1          1    2    1    0
 -5  D2          1    2    2    0
 -5  D3          1    2    3    0
 -5  ALL         1    2    0    0    1ALL
 -1         5 0.00000E+00 0.00000E+00 0.00000E+00
 -1         6 0.00000E+00 0.00000E+00 0.00000E+00
 -1         7 0.00000E+00 0.00000E+00 0.00000E+00
 -1         8 0.00000E+00 0.00000E+00 0.00000E+00
 -1        21 0.00000E+00 0.00000E+00 0.00000E+00
 -1        22 0.00000E+00 0.00000E+00 0.00000E+00
 -1        23 0.00000E+00 0.00000E+00 0.00000E+00
 -1        24 0.00000E+00 0.00000E+00 0.00000E+00
 -1        25 0.00000E+00 0.00000E+00 0.00000E+00
 -1        26 0.00000E+00 0.00000E+00 0.00000E+00
 -1        27 0.00000E+00 0.00000E+00 0.00000E+00
 -1        28 0.00000E+00 0.00000E+00 0.00000E+00
 -1        29 0.00000E+00 0.00000E+00 0.00000E+00
 -1        30 0.00000E+00 0.00000E+00 0.00000E+00
 -1        31 0.00000E+00 0.00000E+00 0.00000E+00
 -1        32 0.00000E+00 0.00000E+00 0.00000E+00
 -1        44-4.25745E-05 8.17386E-04-9.26086E-05
 -1        45 8.67735E-06 6.71847E-04-1.86434E-04
 -1        46 1.05457E-05 5.16234E-04-2.19740E-04
 -1        47-2.13150E-05 2.14581E-04-1.66063E-04
 -1        48 2.13096E-05 2.14580E-04-1.66050E-04
 -1        49-1.05510E-05 5.16197E-04-2.19725E-04
 -1        50-8.77649E-06 6.71910E-04-1.86416E-04
 -1        51 4.24231E-05 8.17420E-04-9.25401E-05
 -1        74 4.62712E-05 8.13513E-04 9.25322E-05
 -1        75-6.56147E-06 6.69619E-04 1.86510E-04
 -1        76-1.14494E-05 5.17155E-04 2.19717E-04
 -1        77 2.06903E-05 2.15212E-04 1.66022E-04
 -1        89-4.64848E-05 8.13355E-04 9.25866E-05
 -1        90 6.46638E-06 6.69615E-04 1.86524E-04
 -1        91 1.14466E-05 5.17158E-04 2.19767E-04
 -1        92-2.06918E-05 2.15218E-04 1.66053E-04
 -1        98 0.00000E+00 0.00000E+00 0.00000E+00
 -1        99 0.00000E+00 0.00000E+00 0.00000E+00
 -1       100 0.00000E+00 0.00000E+00 0.00000E+00
 -1       101 0.00000E+00 0.00000E+00 0.00000E+00
 -1       102 0.00000E+00 0.00000E+00 0.00000E+00
 -1       124 3.94881E-06 7.08718E-04-8.40301E-05
 -1       125-1.19173E-07 8.74128E-04-9.72831E-05
 -1       126-4.12018E-06 7.08751E-04-8.40481E-05
 -1       127-1.93623E-08 6.96321E-04-1.92655E-04
 -1       128-1.66327E-06 5.40849E-04-2.37218E-04
 -1       129-3.40913E-08 4.95206E-04-2.39191E-04
 -1       130 1.62079E-06 5.40857E-04-2.37226E-04
 -1       131 3.43996E-10 2.13251E-04-1.61467E-04
 -1       153 5.99767E-05 1.05442E-03-4.15825E-05
 -1       154 5.50018E-07 8.52170E-04 1.72540E-07
 -1       155-6.13137E-05 1.05190E-03 4.15448E-05
 -1       156-1.66733E-07 7.27547E-04-3.64636E-07
 -1       157-1.34908E-05 4.43518E-04-9.32919E-05
 -1       158-1.11146E-07 4.81524E-04-1.66823E-07
 -1       159 1.37312E-05 4.44070E-04 9.32712E-05
 -1       160 4.86733E-08 1.94010E-04 1.20293E-08
 -1       182 6.70661E-06 7.10142E-04 8.39438E-05
 -1       183-1.38715E-07 8.72760E-04 9.70836E-05
 -1       184-6.92325E-06 7.10107E-04 8.40134E-05
 -1       185-1.19499E-08 6.96529E-04 1.93363E-04
 -1       186-2.26802E-06 5.40562E-04 2.37224E-04
 -1       187-2.94740E-08 4.95440E-04 2.39463E-04
 -1       188 2.23051E-06 5.40555E-04 2.37239E-04
 -1       189 1.77651E-09 2.13179E-04 1.61428E-04
 -1       211 6.12135E-05 1.05184E-03 4.16584E-05
 -1       212-5.89068E-07 8.52236E-04 1.05332E-07
 -1       213-6.00279E-05 1.05449E-03-4.15985E-05
 -1       214 1.25301E-07 7.27517E-04-3.43329E-07
 -1       215-1.37556E-05 4.44088E-04 9.32863E-05
 -1       216 7.61026E-08 4.81552E-04-1.35853E-07
 -1       217 1.34621E-05 4.43510E-04-9.32664E-05
 -1       218-5.69188E-08 1.94008E-04 2.19135E-08
 -1       250-4.55457E-08 9.91819E-04-4.43836E-05
 -1       251 1.15548E-06 5.91509E-04 1.59593E-07
 -1       252 4.15605E-08 7.64816E-04 5.99922E-08
 -1       253-1.15235E-06 5.91469E-04 1.99306E-07
 -1       254-5.48423E-08 9.94148E-04 4.41305E-05
 -1       255-3.48402E-08 7.27823E-04-1.56847E-08
 -1       256-1.46488E-08 4.35320E-04-1.05722E-04
 -1       257-2.79881E-07 5.26050E-04-2.98422E-08
 -1       258 2.39296E-09 4.63346E-04-1.09632E-08
 -1       259 2.70257E-07 5.26038E-04-4.75674E-08
 -1       260-1.21461E-08 4.34760E-04 1.05778E-04
 -1       261-7.71759E-09 2.06316E-04 1.74011E-09
 -3
    1PSTEP                         5           5           1          
  100CL  105 2.50000E-02          81                     1    5           1
 -4  DISP        4    1
 -5  D1          1    2    1    0
 -5  D2          1    2    2    0
 -5  D3          1    2    3    0
 -5  ALL         1    2    0    0    1ALL
 -1         5 0.00000E+00 0.00000E+00 0.00000E+00
 -1         6 0.00000E+00 0.00000E+00 0.00000E+00
 -1         7 0.00000E+00 0.00000E+00 0.00000E+00
 -1         8 0.00000E+00 0.00000E+00 0.00000E+00
 -1        21 0.00000E+00 0.00000E+00 0.00000E+00
 -1        22 0.00000E+00 0.00000E+00 0.00000E+00
 -1        23 0.00000E+00 0.00000E+00 0.00000E+00
 -1        24 0.00000E+00 0.00000E+00 0.00000E+00
 -1        25 0.00000E+00 0.00000E+00 0.00000E+00
 -1        26 0.00000E+00 0.00000E+00 0.00000E+00
 -1        27 0.00000E+00 0.00000E+00 0.00000E+00
 -1        28 0.00000E+00 0.00000E+00 0.00000E+00
 -1        29 0.00000E+00 0.00000E+00 0.00000E+00
 -1        30 0.00000E+00 0.00000E+00 0.00000E+00
 -1        31 0.00000E+00 0.00000E+00 0.00000E+00
 -1        32 0.00000E+00 0.00000E+00 0.00000E+00
 -1        44 3.21981E-05-6.16923E-04 6.98624E-05
 -1        45-6.53622E-06-5.07265E-04 1.40512E-04
 -1        46-8.03320E-06-3.89568E-04 1.65835E-04
 -1        47 1.61180E-05-1.61917E-04 1.25359E-04
 -1        48-1.61131E-05-1.61910E-04 1.25349E-04
 -1        49 8.03400E-06-3.89585E-04 1.65829E-04
 -1        50 6.60087E-06-5.07261E-04 1.40478E-04
 -1        51-3.20313E-05-6.17087E-04 6.98552E-05
 -1        74-3.50875E-05-6.14024E-04-6.98860E-05
 -1        75 4.91104E-06-5.05559E-04-1.40526E-04
 -1        76 8.68674E-06-3.90256E-04-1.65833E-04
 -1        77-1.56391E-05-1.62383E-04-1.25340E-04
 -1        89 3.51636E-05-6.13974E-04-6.98898E-05
 -1        90-4.83883E-06-5.05535E-04-1.40552E-04
 -1        91-8.68987E-06-3.90262E-04-1.65839E-04
 -1        92 1.56420E-05-1.62389E-04-1.25346E-04
 -1        98 0.00000E+00 0.00000E+00 0.00000E+00
 -1        99 0.00000E+00 0.00000E+00 0.00000E+00
 -1       100 0.00000E+00 0.00000E+00 0.00000E+00
 -1       101 0.00000E+00 0.00000E+00 0.00000E+00
 -1       102 0.00000E+00 0.00000E+00 0.00000E+00
 -1       124-2.25722E-06-5.34908E-04 6.34284E-05
 -1       125 1.03141E-07-6.60018E-04 7.33971E-05
 -1       126 2.42601E-06-5.34848E-04 6.33983E-05
 -1       127 2.17410E-08-5.25519E-04 1.45597E-04
 -1       128 1.10186E-06-4.08275E-04 1.79036E-04
 -1       129 1.49583E-08-3.73813E-04 1.80531E-04
 -1       130-1.08265E-06-4.08262E-04 1.79045E-04
 -1       131-6.01446E-10-1.60999E-04 1.21858E-04
 -1       153-4.52336E-05-7.95609E-04 3.14057E-05
 -1       154-3.45168E-07-6.43011E-04 3.32442E-09
 -1       155 4.63221E-05-7.93456E-04-3.13681E-05
 -1       156 1.09627E-07-5.49512E-04 2.94898E-07
 -1       157 1.01676E-05-3.34628E-04 7.04065E-05
 -1       158 1.10124E-07-3.63180E-04 1.22248E-07
 -1       159-1.03435E-05-3.35103E-04-7.03818E-05
 -1       160-4.07164E-08-1.46380E-04-1.17180E-08
 -1       182-4.60237E-06-5.35913E-04-6.33510E-05
 -1       183 7.75300E-08-6.58992E-04-7.32388E-05
 -1       184 4.70404E-06-5.35916E-04-6.33662E-05
 -1       185 1.29501E-08-5.25689E-04-1.46143E-04
 -1       186 1.58699E-06-4.08053E-04-1.79058E-04
 -1       187 1.97120E-08-3.74008E-04-1.80749E-04
 -1       188-1.56544E-06-4.08051E-04-1.79056E-04
 -1       189-7.64726E-10-1.60939E-04-1.21827E-04
 -1       211-4.62601E-05-7.93407E-04-3.13669E-05
 -1       212 4.48073E-07-6.42985E-04-9.83020E-08
 -1       213 4.53529E-05-7.95688E-04 3.13358E-05
 -1       214-9.46232E-08-5.49533E-04 2.56732E-07
 -1       215 1.03666E-05-3.35100E-04-7.04059E-05
 -1       216-7.07685E-08-3.63163E-04 1.06368E-07
 -1       217-1.01445E-05-3.34626E-04 7.03963E-05
 -1       218 4.34238E-08-1.46382E-04-1.49085E-08
 -1       250 3.57671E-08-7.49114E-04 3.34603E-05
 -1       251-9.90311E-07-4.46306E-04-1.22946E-07
 -1       252-3.50349E-08-5.77729E-04-2.05559E-08
 -1       253 1.01688E-06-4.46324E-04-9.12609E-08
 -1       254 2.42737E-08-7.51128E-04-3.32982E-05
 -1       255 2.73626E-08-5.49100E-04 1.97324E-08
 -1       256 4.58341E-09-3.28663E-04 7.98041E-05
 -1       257 2.29312E-07-3.97077E-04 2.25511E-08
 -1       258-5.35167E-09-3.49956E-04 3.81241E-09
 -1       259-2.18491E-07-3.97084E-04 3.58566E-08
 -1       260 6.45556E-09-3.28191E-04-7.98416E-05
 -1       261 5.40187E-09-1.55771E-04-4.69396E-09
 -3
    1PSTEP                         6           6           1          
  100CL  106 3.00000E-02          81                     1    6           1
 -4  DISP        4    1
 -5  D1          1    2    1    0
 -5  D2          1    2    2    0
 -5  D3          1    2    3    0
 -5  ALL         1    2    0    0    1ALL
 -1         5 0.00000E+00 0.00000E+00 0.00000E+00
 -1         6 0.00000E+00 0.00000E+00 0.00000E+00
 -1         7 0.00000E+00 0.00000E+00 0.00000E+00
 -1         8 0.00000E+00 0.00000E+00 0.00000E+00
 -1        21 0.00000E+00 0.00000E+00 0.00000E+00
 -1        22 0.00000E+00 0.00000E+00 0.00000E+00
 -1        23 0.00000E+00 0.00000E+00 0.00000E+00
 -1        24 0.00000E+00 0.00000E+00 0.00000E+00
 -1        25 0.00000E+00 0.00000E+00 0.00000E+00
 -1        26 0.00000E+00 0.00000E+00 0.00000E+00
 -1        27 0.00000E+00 0.00000E+00 0.00000E+00
 -1        28 0.00000E+00 0.00000E+00 0.00000E+00
 -1        29 0.00000E+00 0.00000E+00 0.00000E+00
 -1        30 0.00000E+00 0.00000E+00 0.00000E+00
 -1        31 0.00000E+00 0.00000E+00 0.00000E+00
 -1        32 0.00000E+00 0.00000E+00 0.00000E+00
 -1        44-2.40414E-05 4.46881E-04-5.07494E-05
 -1        45 4.38775E-06 3.67647E-04-1.02067E-04
 -1        46 5.99983E-06 2.82853E-04-1.20385E-04
 -1        47-1.15672E-05 1.17581E-04-9.09561E-05