
 displacements (vx,vy,vz) for set NALL and time  0.5000000E-02

         5  0.000000E+00  0.000000E+00  0.000000E+00
         6  0.000000E+00  0.000000E+00  0.000000E+00
         7  0.000000E+00  0.000000E+00  0.000000E+00
         8  0.000000E+00  0.000000E+00  0.000000E+00
        21  0.000000E+00  0.000000E+00  0.000000E+00
        22  0.000000E+00  0.000000E+00  0.000000E+00
        23  0.000000E+00  0.000000E+00  0.000000E+00
        24  0.000000E+00  0.000000E+00  0.000000E+00
        25  0.000000E+00  0.000000E+00  0.000000E+00
        26  0.000000E+00  0.000000E+00  0.000000E+00
        27  0.000000E+00  0.000000E+00  0.000000E+00
        28  0.000000E+00  0.000000E+00  0.000000E+00
        29  0.000000E+00  0.000000E+00  0.000000E+00
        30  0.000000E+00  0.000000E+00  0.000000E+00
        31  0.000000E+00  0.000000E+00  0.000000E+00
        32  0.000000E+00  0.000000E+00  0.000000E+00
        44 -4.010779E-04 -3.097427E-03  2.843222E-04
        45 -1.510046E-04 -2.376261E-03  6.397753E-04
        46  4.522735E-05 -1.562483E-03  7.807915E-04
        47  1.205763E-04 -6.088336E-04  5.214224E-04
        48 -1.205824E-04 -6.088343E-04  5.214357E-04
        49 -4.526102E-05 -1.562488E-03  7.808221E-04
        50  1.509508E-04 -2.376259E-03  6.398013E-04
        51  4.009611E-04 -3.097419E-03  2.843612E-04
        74  4.426488E-04 -3.690766E-03 -3.227517E-04
        75  2.627002E-04 -2.593633E-03 -6.236606E-04
        76 -1.463787E-04 -1.464243E-03 -7.687049E-04
        77 -1.658018E-04 -5.118447E-04 -5.393382E-04
        89 -4.427636E-04 -3.690753E-03 -3.226757E-04
        90 -2.627557E-04 -2.593629E-03 -6.236106E-04
        91  1.463535E-04 -1.464240E-03 -7.686876E-04
        92  1.657942E-04 -5.118408E-04 -5.393271E-04
        98  0.000000E+00  0.000000E+00  0.000000E+00
        99  0.000000E+00  0.000000E+00  0.000000E+00
       100  0.000000E+00  0.000000E+00  0.000000E+00
       101  0.000000E+00  0.000000E+00  0.000000E+00
       102  0.000000E+00  0.000000E+00  0.000000E+00
       124  2.835027E-04 -2.196489E-03  2.689973E-04
       125 -3.573755E-08 -2.860036E-03  2.937361E-04
       126 -2.835959E-04 -2.196494E-03  2.689756E-04
       127 -3.232785E-08 -2.201869E-03  6.794678E-04
       128 -4.221349E-05 -1.788068E-03  7.816636E-04
       129 -9.212160E-09 -1.632782E-03  7.639587E-04
       130  4.218757E-05 -1.788065E-03  7.816492E-04
       131 -3.589592E-09 -6.872668E-04  5.208166E-04
       153  1.630996E-04 -3.412870E-03  1.290708E-04
       154 -1.479922E-04 -2.054523E-03 -3.146259E-09
       155 -9.364992E-05 -3.505327E-03 -1.623220E-04
       156 -1.074828E-04 -2.296110E-03 -3.941568E-05
       157 -3.627742E-05 -1.347772E-03  3.144956E-04
       158  8.335395E-05 -1.559841E-03 -2.242029E-05
       159  4.347995E-05 -1.358194E-03 -3.255252E-04
       160  3.562103E-05 -6.655186E-04  7.069983E-06
       182  1.301489E-04 -1.922305E-03 -3.015190E-04
       183 -6.003627E-08 -3.451399E-03 -3.310421E-04
       184 -1.302633E-04 -1.922295E-03 -3.014986E-04
       185 -2.715286E-08 -2.459016E-03 -6.455002E-04
       186 -5.243522E-05 -1.970081E-03 -8.071367E-04
       187 -1.410437E-08 -1.674703E-03 -7.911438E-04
       188  5.240841E-05 -1.970081E-03 -8.071239E-04
       189 -2.426045E-09 -6.791742E-04 -5.369549E-04
       211  9.354008E-05 -3.505308E-03 -1.622775E-04
       212  1.478951E-04 -2.054494E-03  3.718222E-08
       213 -1.632053E-04 -3.412853E-03  1.291257E-04
       214  1.074233E-04 -2.296110E-03 -3.938044E-05
       215 -4.350543E-05 -1.358190E-03 -3.255008E-04
       216 -8.338063E-05 -1.559836E-03 -2.239498E-05
       217  3.624647E-05 -1.347772E-03  3.145201E-04
       218 -3.562983E-05 -6.655187E-04  7.082470E-06
       250 -4.130185E-08 -3.421435E-03  1.058139E-04
       251 -1.069731E-05 -2.057122E-03  1.595566E-05
       252 -4.964819E-08 -2.398536E-03  1.319245E-05
       253  1.059886E-05 -2.057140E-03  1.593474E-05
       254 -5.693382E-08 -3.676804E-03 -1.869618E-04
       255 -2.920757E-08 -2.205416E-03 -3.092624E-05
       256 -1.166004E-08 -1.433888E-03  3.352474E-04
       257 -2.583572E-05 -1.654476E-03 -1.263483E-05
       258 -1.324005E-08 -1.651514E-03 -1.456650E-05
       259  2.580962E-05 -1.654479E-03 -1.264704E-05
       260 -1.347000E-08 -1.458019E-03 -3.457466E-04
       261 -3.411583E-09 -6.992562E-04 -2.859588E-07

 forces (fx,fy,fz) for set NALL and time  0.5000000E-02

         5  5.660012E-01 -6.742104E+00 -1.046460E+00
         6 -5.658912E-01 -6.742184E+00 -1.046523E+00
         7  1.899946E+00 -2.243341E+00  1.185697E+00
         8 -1.899945E+00 -2.243315E+00  1.185616E+00
        21 -8.768822E-01  2.857099E+00 -1.624680E+01
        22 -5.207682E-07 -1.310614E+01 -1.960867E+00
        23  8.768220E-01  2.857064E+00 -1.624656E+01
        24 -3.251284E+00  2.193139E+01 -8.707183E+00
        25  1.737589E+00 -1.464271E+01 -2.592645E-01
        26  4.163124E-01  1.861226E+01  8.933891E+00
        27 -9.902561E-02 -2.110428E+00  1.586774E+01
        28  1.712182E-05 -5.974982E+00  2.712239E+00
        29  9.894962E-02 -2.110493E+00  1.586763E+01
        30 -4.162372E-01  1.861226E+01  8.933681E+00
        31 -1.737546E+00 -1.464271E+01 -2.592404E-01
        32  3.251371E+00  2.193139E+01 -8.707593E+00
        44 -2.788087E+00  5.576659E+01  1.392585E+00
        45 -8.512988E-06 -6.080310E-01  1.525662E-01
        46  6.330163E-06  1.541468E+00 -4.634105E-01
        47 -2.134107E-06 -1.167009E+00  5.403043E-01
        48  2.231423E-06 -1.167008E+00  5.403049E-01
        49 -5.617540E-06  1.541468E+00 -4.634109E-01
        50  6.331114E-06 -6.080331E-01  1.525659E-01
        51  2.787821E+00  5.576642E+01  1.391938E+00
        74 -5.200416E+00  2.613728E+01 -6.759321E-01
        75 -1.474527E-06 -6.081315E-01 -1.525328E-01
        76 -1.755839E-07  1.541540E+00  4.634013E-01
        77  3.386385E-06 -1.167025E+00 -5.402994E-01
        89  5.200538E+00  2.613707E+01 -6.751593E-01
        90 -1.832703E-06 -6.081280E-01 -1.525325E-01
        91  8.522155E-07  1.541539E+00  4.634013E-01
        92 -2.838607E-06 -1.167028E+00 -5.402994E-01
        98 -1.005882E-04  4.425217E+01 -1.432319E+01
        99  1.087150E+00 -4.393656E+00  4.674819E-01
       100  5.224413E-05 -2.803199E+01 -5.407204E-01
       101 -1.087271E+00 -4.393498E+00  4.678571E-01
       102  5.703867E-05  4.111875E+01  1.422535E+01
       124  7.580000E+00  2.758437E+01 -2.007822E+00
       125  1.188335E-04  1.085941E+02  3.381251E+00
       126 -7.579723E+00  2.758435E+01 -2.008703E+00
       127  7.828679E-07 -1.216062E+00  3.051220E-01
       128  5.450618E-06 -2.615770E+00  9.358676E-01
       129 -3.264192E-07  3.082936E+00 -9.268177E-01
       130 -5.878242E-06 -2.615769E+00  9.358664E-01
       131  6.152898E-07 -2.334018E+00  1.080607E+00
       153  1.281531E+01 -1.440413E+02 -2.952547E+00
       154 -1.075998E+01  1.050516E+02  9.127324E-01
       155  6.295365E+00 -1.206529E+02  1.060007E+00
       156 -1.482885E-05 -1.216153E+00 -2.886362E-05
       157 -8.902172E-06 -2.615780E+00  7.018892E-01
       158  7.984512E-06  3.083006E+00  1.352838E-05
       159 -2.128536E-06 -2.615853E+00 -7.018921E-01
       160 -1.760853E-06 -2.334038E+00 -4.181927E-06
       182  8.779914E-01  6.372363E+01  1.809610E+00
       183 -1.600728E-04  5.899925E+01 -1.310554E+00
       184 -8.780547E-01  6.372376E+01  1.808741E+00
       185  1.607591E-06 -6.742588E+00 -3.050619E-01
       186  9.259803E-07 -8.142187E+00 -9.358363E-01
       187 -5.346319E-07 -2.443232E+00  9.268042E-01
       188 -1.333511E-06 -8.142185E+00 -9.358357E-01
       189  4.157060E-07 -7.860376E+00 -1.080595E+00
       211 -6.295579E+00 -1.206527E+02  1.059253E+00
       212  1.076004E+01  1.050518E+02  9.126256E-01
       213 -1.281541E+01 -1.440411E+02 -2.951264E+00
       214  1.141535E-05 -1.216153E+00 -2.698769E-05
       215  3.114165E-08 -2.615852E+00 -7.018923E-01
       216 -6.471625E-06  3.083005E+00  1.246698E-05
       217  7.173009E-06 -2.615781E+00  7.018894E-01
       218  1.033550E-06 -2.334038E+00 -5.481297E-06
       250  5.673588E-04 -2.908178E+02 -7.889478E+00
       251 -6.226801E+00  8.136025E+01  1.570008E+00
       252 -3.924790E-06  2.061724E+02  2.833905E+00
       253  6.226935E+00  8.135912E+01  1.569839E+00
       254 -5.540862E-04 -2.643789E+02  2.661901E-01
       255  3.865755E-06 -2.432313E+00 -7.204955E-05
       256  1.224240E-06 -5.231560E+00  1.403767E+00
       257  9.178167E-06 -5.231632E+00 -3.156131E-05
       258 -7.938690E-07  6.166016E+00  2.886014E-05
       259 -8.985467E-06 -5.231632E+00 -3.216546E-05
       260  1.992694E-06 -5.231718E+00 -1.403782E+00
       261 -3.765781E-07 -4.668080E+00 -1.152475E-05

 displacements (vx,vy,vz) for set NALL and time  0.1000000E-01

         5  0.000000E+00  0.000000E+00  0.000000E+00
         6  0.000000E+00  0.000000E+00  0.000000E+00
         7  0.000000E+00  0.000000E+00  0.000000E+00
         8  0.000000E+00  0.000000E+00  0.000000E+00
        21  0.000000E+00  0.000000E+00  0.000000E+00
        22  0.000000E+00  0.000000E+00  0.000000E+00
        23  0.000000E+00  0.000000E+00  0.000000E+00
        24  0.000000E+00  0.000000E+00  0.000000E+00
        25  0.000000E+00  0.000000E+00  0.000000E+00
        26  0.000000E+00  0.000000E+00  0.000000E+00
        27  0.000000E+00  0.000000E+00  0.000000E+00
        28  0.000000E+00  0.000000E+00  0.000000E+00
        29  0.000000E+00  0.000000E+00  0.000000E+00
        30  0.000000E+00  0.000000E+00  0.000000E+00
        31  0.000000E+00  0.000000E+00  0.000000E+00
        32  0.000000E+00  0.000000E+00  0.000000E+00
        44 -6.916034E-05  1.328961E-03 -1.503661E-04
        45  1.380080E-05  1.092637E-03 -3.028615E-04
        46  1.738750E-05  8.391156E-04 -3.574427E-04
        47 -3.461818E-05  3.486967E-04 -2.699270E-04
        48  3.462398E-05  3.486990E-04 -2.699400E-04
        49 -1.742052E-05  8.391102E-04 -3.574514E-04
        50 -1.370686E-05  1.092597E-03 -3.028507E-04
        51  6.913055E-05  1.328881E-03 -1.503050E-04
        74  7.531226E-05  1.325291E-03  1.505737E-04
        75 -1.048478E-05  1.090052E-03  3.027196E-04
        76 -1.854306E-05  8.400910E-04  3.573528E-04
        77  3.380298E-05  3.492539E-04  2.700284E-04
        89 -7.527041E-05  1.325400E-03  1.506068E-04
        90  1.052627E-05  1.090069E-03  3.027244E-04
        91  1.851954E-05  8.400860E-04  3.573614E-04
        92 -3.380463E-05  3.492445E-04  2.700241E-04
        98  0.000000E+00  0.000000E+00  0.000000E+00
        99  0.000000E+00  0.000000E+00  0.000000E+00
       100  0.000000E+00  0.000000E+00  0.000000E+00
       101  0.000000E+00  0.000000E+00  0.000000E+00
       102  0.000000E+00  0.000000E+00  0.000000E+00
       124  5.261937E-06  1.152229E-03 -1.365650E-04
       125  1.128488E-07  1.421018E-03 -1.579791E-04
       126 -5.182259E-06  1.152224E-03 -1.365045E-04
       127 -1.468619E-08  1.131702E-03 -3.137767E-04
       128 -2.434613E-06  8.793816E-04 -3.856831E-04
       129  3.715410E-08  8.054170E-04 -3.888739E-04
       130  2.460325E-06  8.793922E-04 -3.857015E-04
       131 -2.325673E-09  3.467851E-04 -2.624738E-04
       153  9.694171E-05  1.713061E-03 -6.756690E-05
       154  1.687313E-06  1.382829E-03  2.247606E-07
       155 -9.948627E-05  1.708843E-03  6.770368E-05
       156  2.251245E-07  1.183176E-03 -3.262972E-07
       157 -2.173558E-05  7.207993E-04 -1.516919E-04
       158 -5.051319E-07  7.825408E-04 -1.522951E-07
       159  2.214015E-05  7.218404E-04  1.517216E-04
       160 -7.916379E-08  3.154757E-04 -1.784949E-08
       182  9.999553E-06  1.153118E-03  1.366283E-04
       183  7.069405E-08  1.421731E-03  1.578821E-04
       184 -9.927760E-06  1.153139E-03  1.366384E-04
       185 -5.670460E-09  1.133233E-03  3.149112E-04
       186 -3.316037E-06  8.798146E-04  3.858115E-04
       187  1.494805E-08  8.060955E-04  3.894654E-04
       188  3.324387E-06  8.798182E-04  3.858194E-04
       189 -4.005155E-09  3.466403E-04  2.624838E-04
       211  9.947899E-05  1.708910E-03  6.773000E-05
       212 -1.690125E-06  1.382828E-03  1.951680E-07
       213 -9.698908E-05  1.713003E-03 -6.753917E-05
       214 -2.422700E-07  1.183168E-03 -3.367706E-07
       215 -2.213468E-05  7.218301E-04  1.517182E-04
       216  5.321570E-07  7.825299E-04 -1.543021E-07
       217  2.173741E-05  7.207940E-04 -1.517033E-04
       218  8.035482E-08  3.154724E-04 -1.317033E-08
       250  2.282084E-08  1.613883E-03 -7.190207E-05
       251  1.827689E-06  9.621474E-04  1.814986E-07
       252 -8.123400E-08  1.242739E-03  4.355155E-08
       253 -1.893291E-06  9.621491E-04  1.794367E-07
       254 -2.947558E-09  1.619071E-03  7.195763E-05
       255  1.081035E-08  1.182057E-03  1.398240E-07
       256  1.084073E-08  7.079909E-04 -1.718369E-04
       257 -3.306852E-07  8.551169E-04  1.370292E-08
       258 -1.196782E-08  7.544748E-04  7.827131E-08
       259  3.272579E-07  8.551221E-04  1.993083E-08
       260  9.356577E-10  7.072106E-04  1.720070E-04
       261  5.627468E-09  3.357577E-04 -6.615117E-09

 forces (fx,fy,fz) for set NALL and time  0.1000000E-01

         5 -8.794306E-01  1.888437E+00  8.745266E-01
         6  8.796645E-01  1.888287E+00  8.748065E-01
         7 -9.060884E-01  1.883007E+00 -8.762174E-01
         8  9.061955E-01  1.882873E+00 -8.761814E-01
        21  1.829233E-01 -7.527992E-01  8.133978E+00
        22 -4.515677E-04  2.983903E+00  1.675246E+00
        23 -1.827300E-01 -7.524707E-01  8.133457E+00
        24  4.085536E-01 -8.674089E+00  4.022039E+00
        25 -4.286131E-02  4.646483E+00 -5.068811E-03
        26 -3.791593E-01 -8.676699E+00 -4.017662E+00
        27  2.077483E-01 -7.448824E-01 -8.136191E+00
        28 -2.814414E-04  3.022267E+00 -1.668978E+00
        29 -2.075825E-01 -7.445698E-01 -8.136115E+00
        30  3.791138E-01 -8.676751E+00 -4.017815E+00
        31  4.267563E-02  4.646518E+00 -4.818541E-03
        32 -4.083126E-01 -8.673983E+00  4.021906E+00
        44 -3.996705E+00 -1.900405E+01 -7.504673E-01
        45  7.287382E-06  5.208294E-01 -1.306857E-01
        46 -5.423300E-06 -1.320397E+00  3.969501E-01
        47  1.833985E-06  9.996418E-01 -4.628161E-01
        48 -1.917346E-06  9.996407E-01 -4.628166E-01
        49  4.812887E-06 -1.320397E+00  3.969504E-01
        50 -5.418433E-06  5.208312E-01 -1.306855E-01
        51  3.996711E+00 -1.900441E+01 -7.494011E-01
        74  4.187184E+00 -1.899024E+01  7.519548E-01
        75  1.270675E-06  5.209155E-01  1.306571E-01
        76  1.493815E-07 -1.320459E+00 -3.969422E-01
        77 -2.907332E-06  9.996555E-01  4.628120E-01
        89 -4.186925E+00 -1.898979E+01  7.512642E-01
        90  1.562236E-06  5.209125E-01  1.306569E-01
        91 -7.289660E-07 -1.320458E+00 -3.969422E-01
        92  2.438112E-06  9.996574E-01  4.628120E-01
        98 -3.026225E-04 -1.645806E+01  7.232230E+00
        99 -5.603035E-02  2.533181E+00  5.452863E-04
       100  6.367722E-04  8.395817E+00  1.922435E-04
       101  5.568411E-02  2.533237E+00  4.297842E-04
       102  2.670086E-05 -1.655387E+01 -7.232931E+00
       124 -1.397082E+00 -1.763356E+01  1.295498E+00
       125  1.621488E-03 -3.390720E+01 -1.600230E+00
       126  1.397051E+00 -1.763472E+01  1.298047E+00
       127 -6.706019E-07  1.041659E+00 -2.613626E-01
       128 -4.670293E-06  2.240627E+00 -8.016494E-01
       129  2.796136E-07 -2.640794E+00  7.938974E-01
       130  5.036579E-06  2.240626E+00 -8.016484E-01
       131 -5.270490E-07  1.999283E+00 -9.256305E-01
       153  4.982653E+00  5.895567E+01  1.369348E+00
       154  3.523987E-01 -3.966845E+01  3.012355E-03
       155 -5.237969E+00  5.895301E+01 -1.375887E+00
       156  1.270073E-05  1.041737E+00  2.471823E-05
       157  7.627474E-06  2.240635E+00 -6.012272E-01
       158 -6.840049E-06 -2.640854E+00 -1.158448E-05
       159  1.823866E-06  2.240699E+00  6.012297E-01
       160  1.510423E-06  1.999300E+00  3.582378E-06
       182 -1.538556E+00 -1.764107E+01 -1.297129E+00
       183  1.386453E-03 -3.429966E+01  1.597758E+00
       184  1.538405E+00 -1.764166E+01 -1.296552E+00
       185 -1.377047E-06  1.069540E+00  2.613111E-01
       186 -7.935409E-07  2.268415E+00  8.016226E-01
       187  4.579648E-07 -2.613220E+00 -7.938858E-01
       188  1.142616E-06  2.268413E+00  8.016221E-01
       189 -3.560884E-07  2.027020E+00  9.256205E-01
       211  5.238001E+00  5.895421E+01 -1.374021E+00
       212 -3.532490E-01 -3.966865E+01  1.559500E-03
       213 -4.983053E+00  5.895435E+01  1.369729E+00
       214 -9.776794E-06  1.041737E+00  2.311135E-05
       215 -2.727999E-08  2.240697E+00  6.012298E-01
       216  5.544149E-06 -2.640853E+00 -1.067532E-05
       217 -6.146311E-06  2.240637E+00 -6.012274E-01
       218 -8.874304E-07  1.999300E+00  4.695401E-06
       250  4.926110E-04  1.070572E+02  2.365795E+00
       251  4.482898E-01 -4.370561E+01  9.554636E-03
       252 -3.057068E-03 -7.399926E+01 -3.135518E-03
       253 -4.475615E-01 -4.370558E+01  1.000381E-02
       254 -3.098203E-05  1.078330E+02 -2.374082E+00
       255 -3.311363E-06  2.083479E+00  6.170460E-05
       256 -1.048675E-06  4.481271E+00 -1.202445E+00
       257 -7.864606E-06  4.481333E+00  2.702917E-05
       258  6.800312E-07 -5.281711E+00 -2.471323E-05
       259  7.699523E-06  4.481333E+00  2.754666E-05
       260 -1.706919E-06  4.481406E+00  1.202458E+00
       261  3.225682E-07  3.998604E+00  9.871982E-06

 displacements (vx,vy,vz) for set NALL and time  0.1500000E-01

         5  0.000000E+00  0.000000E+00  0.000000E+00
         6  0.000000E+00  0.000000E+00  0.000000E+00
         7  0.000000E+00  0.000000E+00  0.000000E+00
         8  0.000000E+00  0.000000E+00  0.000000E+00
        21  0.000000E+00  0.000000E+00  0.000000E+00
        22  0.000000E+00  0.000000E+00  0.000000E+00
        23  0.000000E+00  0.000000E+00  0.000000E+00
        24  0.000000E+00  0.000000E+00  0.000000E+00
        25  0.000000E+00  0.000000E+00  0.000000E+00
        26  0.000000E+00  0.000000E+00  0.000000E+00
        27  0.000000E+00  0.000000E+00  0.000000E+00
        28  0.000000E+00  0.000000E+00  0.000000E+00
        29  0.000000E+00  0.000000E+00  0.000000E+00
        30  0.000000E+00  0.000000E+00  0.000000E+00
        31  0.000000E+00  0.000000E+00  0.000000E+00
        32  0.000000E+00  0.000000E+00  0.000000E+00
        44  5.490722E-05 -1.053083E-03  1.193090E-04
        45 -1.114155E-05 -8.656852E-04  2.400039E-04
        46 -1.366417E-05 -6.650161E-04  2.830868E-04
        47  2.749150E-05 -2.763950E-04  2.139631E-04
        48 -2.747576E-05 -2.763975E-04  2.139450E-04
        49  1.367660E-05 -6.649983E-04  2.830685E-04
        50  1.129298E-05 -8.657681E-04  2.399791E-04
        51 -5.471476E-05 -1.053179E-03  1.192629E-04
        74 -5.976743E-05 -1.048125E-03 -1.192779E-04
        75  8.406279E-06 -8.628172E-04 -2.401021E-04
        76  1.477378E-05 -6.661664E-04 -2.830530E-04
        77 -2.668639E-05 -2.771954E-04 -2.139161E-04
        89  5.996635E-05 -1.047986E-03 -1.193264E-04
        90 -8.310333E-06 -8.628300E-04 -2.401182E-04
        91 -1.478211E-05 -6.661818E-04 -2.831119E-04
        92  2.668216E-05 -2.772099E-04 -2.139511E-04
        98  0.000000E+00  0.000000E+00  0.000000E+00
        99  0.000000E+00  0.000000E+00  0.000000E+00
       100  0.000000E+00  0.000000E+00  0.000000E+00
       101  0.000000E+00  0.000000E+00  0.000000E+00
       102  0.000000E+00  0.000000E+00  0.000000E+00
       124 -4.343297E-06 -9.130747E-04  1.082861E-04
       125  1.734082E-07 -1.126448E-03  1.253306E-04
       126  4.586833E-06 -9.130818E-04  1.082954E-04
       127  3.484831E-08 -8.970941E-04  2.483920E-04
       128  1.996274E-06 -6.968059E-04  3.056201E-04
       129  4.971647E-08 -6.379745E-04  3.081718E-04
       130 -1.933973E-06 -6.968042E-04  3.056268E-04
       131  2.635878E-09 -2.747501E-04  2.080060E-04
       153 -7.730295E-05 -1.358389E-03  5.358355E-05
       154 -6.796711E-07 -1.097835E-03 -1.696286E-07
       155  7.908579E-05 -1.354812E-03 -5.353446E-05
       156  1.860850E-07 -9.376671E-04  4.832275E-07
       157  1.737794E-05 -5.712477E-04  1.201746E-04
       158  1.755932E-07 -6.200988E-04  1.953950E-07
       159 -1.768788E-05 -5.720272E-04 -1.201614E-04
       160 -5.852360E-08 -2.498742E-04 -2.051959E-08
       182 -8.275828E-06 -9.148668E-04 -1.081731E-04
       183  1.365971E-07 -1.124783E-03 -1.251075E-04
       184  8.480845E-06 -9.148448E-04 -1.082681E-04
       185  5.967603E-09 -8.973922E-04 -2.493260E-04
       186  2.805629E-06 -6.964610E-04 -3.056322E-04
       187  2.675635E-08 -6.383364E-04 -3.085225E-04
       188 -2.775776E-06 -6.964600E-04 -3.056465E-04
       189 -4.935884E-09 -2.746613E-04 -2.079531E-04
       211 -7.897023E-05 -1.354766E-03 -5.365762E-05
       212  7.732917E-07 -1.097923E-03 -1.491884E-07
       213  7.739890E-05 -1.358503E-03  5.358637E-05
       214 -1.430165E-07 -9.376621E-04  4.453136E-07
       215  1.771553E-05 -5.720567E-04 -1.201838E-04
       216 -1.235275E-07 -6.201378E-04  1.618627E-07
       217 -1.733675E-05 -5.712553E-04  1.201443E-04
       218  6.758508E-08 -2.498798E-04 -3.064699E-08
       250  7.070197E-08 -1.278169E-03  5.720754E-05
       251 -1.649189E-06 -7.620107E-04 -2.379889E-07
       252 -4.752054E-08 -9.858357E-04 -3.578098E-08
       253  1.668436E-06 -7.619600E-04 -2.759208E-07
       254  5.058485E-08 -1.281529E-03 -5.684142E-05
       255  4.536752E-08 -9.374933E-04  2.040416E-08
       256  2.160092E-08 -5.609053E-04  1.362125E-04
       257  3.843907E-07 -6.777469E-04  3.984780E-08
       258 -4.121766E-09 -5.971080E-04  5.517797E-09
       259 -3.687030E-07 -6.777295E-04  6.411714E-08
       260  9.877006E-09 -5.601428E-04 -1.362959E-04
       261  9.521614E-09 -2.658257E-04 -5.372305E-09

 forces (fx,fy,fz) for set NALL and time  0.1500000E-01

         5  6.965613E-01 -1.484492E+00 -6.951889E-01
         6 -6.965419E-01 -1.484480E+00 -6.952269E-01
         7  7.075106E-01 -1.499237E+00  6.957154E-01
         8 -7.075227E-01 -1.499400E+00  6.951141E-01
        21 -1.385530E-01  5.866927E-01 -6.443574E+00
        22 -4.924252E-04 -2.329233E+00 -1.333760E+00
        23  1.387531E-01  5.873380E-01 -6.443699E+00
        24 -3.201996E-01  6.858646E+00 -3.186227E+00
        25  2.682866E-02 -3.662427E+00  4.354478E-03
        26  3.087002E-01  6.877882E+00  3.181134E+00
        27 -1.509188E-01  6.000653E-01  6.446989E+00
        28 -4.342881E-04 -2.388681E+00  1.326218E+00
        29  1.513068E-01  6.003091E-01  6.447577E+00
        30 -3.086942E-01  6.877836E+00  3.182019E+00
        31 -2.717986E-02 -3.662181E+00  4.306074E-03
        32  3.202004E-01  6.858754E+00 -3.185878E+00
        44  3.168278E+00  1.498749E+01  5.961741E-01
        45 -5.785571E-06 -4.142267E-01  1.039372E-01
        46  4.313962E-06  1.050141E+00 -3.157033E-01
        47 -1.469321E-06 -7.950376E-01  3.680881E-01
        48  1.535621E-06 -7.950367E-01  3.680885E-01
        49 -3.828496E-06  1.050141E+00 -3.157036E-01
        50  4.299165E-06 -4.142282E-01  1.039370E-01
        51 -3.168009E+00  1.498737E+01  5.950719E-01
        74 -3.254607E+00  1.510102E+01 -5.988381E-01
        75 -1.024903E-06 -4.142952E-01 -1.039144E-01
        76 -1.166854E-07  1.050190E+00  3.156970E-01
        77  2.323905E-06 -7.950485E-01 -3.680848E-01
        89  3.255411E+00  1.510143E+01 -5.959374E-01
        90 -1.228165E-06 -4.142928E-01 -1.039143E-01
        91  5.776334E-07  1.050190E+00  3.156970E-01
        92 -1.950722E-06 -7.950500E-01 -3.680848E-01
        98  3.523650E-05  1.298948E+01 -5.730244E+00
        99  4.111807E-02 -2.021495E+00 -4.525096E-04
       100  6.210690E-04 -6.592091E+00  3.264531E-04
       101 -4.122414E-02 -2.022014E+00 -8.033799E-04
       102  2.288674E-05  1.307947E+01  5.731491E+00
       124  1.063537E+00  1.403221E+01 -1.029901E+00
       125  2.142634E-03  2.665213E+01  1.268735E+00
       126 -1.063694E+00  1.403064E+01 -1.031868E+00
       127  5.333549E-07 -8.284538E-01  2.078674E-01
       128  3.716190E-06 -1.782021E+00  6.375697E-01
       129 -2.223917E-07  2.100282E+00 -6.314044E-01
       130 -4.007494E-06 -1.782020E+00  6.375689E-01
       131  4.191757E-07 -1.590074E+00  7.361748E-01
       153 -3.980092E+00 -4.663754E+01 -1.085593E+00
       154 -2.390688E-01  3.133505E+01 -3.050456E-03
       155  4.103224E+00 -4.675191E+01  1.096537E+00
       156 -1.009932E-05 -8.285153E-01 -1.965073E-05
       157 -6.068952E-06 -1.782027E+00  4.781694E-01
       158  5.440994E-06  2.100329E+00  9.208201E-06
       159 -1.451580E-06 -1.782078E+00 -4.781714E-01
       160 -1.204183E-06 -1.590088E+00 -2.849430E-06
       182  1.132010E+00  1.389560E+01  1.030190E+00
       183  1.446267E-03  2.716780E+01 -1.270905E+00
       184 -1.132684E+00  1.389521E+01  1.025450E+00
       185  1.095207E-06 -8.300550E-01 -2.078264E-01
       186  6.315062E-07 -1.783548E+00 -6.375484E-01
       187 -3.642385E-07  2.098925E+00  6.313951E-01
       188 -9.091230E-07 -1.783546E+00 -6.375480E-01
       189  2.832067E-07 -1.591561E+00 -7.361668E-01
       211 -4.102638E+00 -4.675032E+01  1.091662E+00
       212  2.383476E-01  3.133468E+01 -1.280621E-03
       213  3.979509E+00 -4.663926E+01 -1.084645E+00
       214  7.773864E-06 -8.285157E-01 -1.837275E-05
       215  2.272485E-08 -1.782077E+00 -4.781715E-01
       216 -4.410352E-06  2.100329E+00  8.485125E-06
       217  4.890961E-06 -1.782028E+00  4.781696E-01
       218  7.087059E-07 -1.590088E+00 -3.734645E-06
       250  6.569121E-04 -8.448203E+01 -1.857411E+00
       251 -3.416123E-01  3.473357E+01 -1.999301E-02
       252 -3.245530E-03  5.828698E+01 -2.353768E-03
       253  3.416709E-01  3.473383E+01 -2.199478E-02
       254 -4.787617E-04 -8.521832E+01  1.899760E+00
       255  2.633622E-06 -1.657036E+00 -4.905835E-05
       256  8.340461E-07 -3.564055E+00  9.563311E-01
       257  6.258748E-06 -3.564104E+00 -2.148885E-05
       258 -5.408613E-07  4.200662E+00  1.964389E-05
       259 -6.127432E-06 -3.564104E+00 -2.190042E-05
       260  1.357563E-06 -3.564162E+00 -9.563416E-01
       261 -2.565425E-07 -3.180180E+00 -7.851501E-06

 displacements (vx,vy,vz) for set NALL and time  0.2000000E-01

         5  0.000000E+00  0.000000E+00  0.000000E+00
         6  0.000000E+00  0.000000E+00  0.000000E+00
         7  0.000000E+00  0.000000E+00  0.000000E+00
         8  0.000000E+00  0.000000E+00  0.000000E+00
        21  0.000000E+00  0.000000E+00  0.000000E+00
        22  0.000000E+00  0.000000E+00  0.000000E+00
        23  0.000000E+00  0.000000E+00  0.000000E+00
        24  0.000000E+00  0.000000E+00  0.000000E+00
        25  0.000000E+00  0.000000E+00  0.000000E+00
        26  0.000000E+00  0.000000E+00  0.000000E+00
        27  0.000000E+00  0.000000E+00  0.000000E+00
        28  0.000000E+00  0.000000E+00  0.000000E+00
        29  0.000000E+00  0.000000E+00  0.000000E+00
        30  0.000000E+00  0.000000E+00  0.000000E+00
        31  0.000000E+00  0.000000E+00  0.000000E+00
        32  0.000000E+00  0.000000E+00  0.000000E+00
        44 -4.257449E-05  8.173865E-04 -9.260864E-05
        45  8.677355E-06  6.718471E-04 -1.864336E-04
        46  1.054566E-05  5.162343E-04 -2.197399E-04
        47 -2.131496E-05  2.145815E-04 -1.660634E-04
        48  2.130963E-05  2.145795E-04 -1.660499E-04
        49 -1.055104E-05  5.161969E-04 -2.197252E-04
        50 -8.776486E-06  6.719095E-04 -1.864160E-04
        51  4.242312E-05  8.174201E-04 -9.254013E-05
        74  4.627121E-05  8.135132E-04  9.253216E-05
        75 -6.561472E-06  6.696193E-04  1.865103E-04
        76 -1.144940E-05  5.171550E-04  2.197172E-04
        77  2.069033E-05  2.152116E-04  1.660220E-04
        89 -4.648483E-05  8.133549E-04  9.258663E-05
        90  6.466377E-06  6.696146E-04  1.865244E-04
        91  1.144658E-05  5.171578E-04  2.197666E-04
        92 -2.069178E-05  2.152181E-04  1.660526E-04
        98  0.000000E+00  0.000000E+00  0.000000E+00
        99  0.000000E+00  0.000000E+00  0.000000E+00
       100  0.000000E+00  0.000000E+00  0.000000E+00
       101  0.000000E+00  0.000000E+00  0.000000E+00
       102  0.000000E+00  0.000000E+00  0.000000E+00
       124  3.948809E-06  7.087181E-04 -8.403007E-05
       125 -1.191731E-07  8.741282E-04 -9.728307E-05
       126 -4.120175E-06  7.087507E-04 -8.404808E-05
       127 -1.936233E-08  6.963206E-04 -1.926548E-04
       128 -1.663275E-06  5.408486E-04 -2.372185E-04
       129 -3.409130E-08  4.952058E-04 -2.391910E-04
       130  1.620786E-06  5.408574E-04 -2.372263E-04
       131  3.439965E-10  2.132512E-04 -1.614668E-04
       153  5.997669E-05  1.054416E-03 -4.158245E-05
       154  5.500184E-07  8.521698E-04  1.725403E-07
       155 -6.131368E-05  1.051902E-03  4.154479E-05
       156 -1.667334E-07  7.275466E-04 -3.646363E-07
       157 -1.349083E-05  4.435175E-04 -9.329190E-05
       158 -1.111459E-07  4.815235E-04 -1.668229E-07
       159  1.373124E-05  4.440704E-04  9.327124E-05
       160  4.867335E-08  1.940098E-04  1.202934E-08
       182  6.706609E-06  7.101417E-04  8.394376E-05
       183 -1.387149E-07  8.727602E-04  9.708355E-05
       184 -6.923248E-06  7.101073E-04  8.401339E-05
       185 -1.194987E-08  6.965288E-04  1.933629E-04
       186 -2.268025E-06  5.405621E-04  2.372243E-04
       187 -2.947397E-08  4.954399E-04  2.394635E-04
       188  2.230512E-06  5.405549E-04  2.372391E-04
       189  1.776508E-09  2.131792E-04  1.614282E-04
       211  6.121353E-05  1.051837E-03  4.165844E-05
       212 -5.890680E-07  8.522357E-04  1.053323E-07
       213 -6.002785E-05  1.054485E-03 -4.159854E-05
       214  1.253013E-07  7.275170E-04 -3.433289E-07
       215 -1.375557E-05  4.440880E-04  9.328629E-05
       216  7.610255E-08  4.815515E-04 -1.358532E-07
       217  1.346208E-05  4.435104E-04 -9.326642E-05
       218 -5.691875E-08  1.940080E-04  2.191353E-08
       250 -4.554574E-08  9.918186E-04 -4.438365E-05
       251  1.155475E-06  5.915090E-04  1.595928E-07