    1C
    1UUSER                                                              
    1UDATE              18.july.2018                                    
    1UTIME              00:33:31                                        
    1UHOST                                                              
    1UPGM               CalculiX                                        
    1UVERSION           Version 2.13                             
    1UCOMPILETIME       jue jun 14 00:40:39 CEST 2018                    
    1UDIR                                                               
    1UDBN                                                               
    1UMAT    1EL                                                        
    2C                           201                                     1
 -1         1 0.00000E+00 0.00000E+00 0.00000E+00
 -1         2 1.00000E+00 0.00000E+00 0.00000E+00
 -1         3 1.00000E+00 1.00000E+00 0.00000E+00
 -1         4 0.00000E+00 1.00000E+00 0.00000E+00
 -1         9 2.50000E-01 0.00000E+00 0.00000E+00
 -1        10 5.00000E-01 0.00000E+00 0.00000E+00
 -1        11 7.50000E-01 0.00000E+00 0.00000E+00
 -1        12 1.00000E+00 2.50000E-01 0.00000E+00
 -1        13 1.00000E+00 5.00000E-01 0.00000E+00
 -1        14 1.00000E+00 7.50000E-01 0.00000E+00
 -1        15 7.50000E-01 1.00000E+00 0.00000E+00
 -1        16 5.00000E-01 1.00000E+00 0.00000E+00
 -1        17 2.50000E-01 1.00000E+00 0.00000E+00
 -1        18 0.00000E+00 7.50000E-01 0.00000E+00
 -1        19 0.00000E+00 5.00000E-01 0.00000E+00
 -1        20 0.00000E+00 2.50000E-01 0.00000E+00
 -1        33 1.00000E+00 0.00000E+00 5.00000E-01
 -1        34 1.00000E+00 0.00000E+00 1.00000E+00
 -1        35 1.00000E+00 0.00000E+00 1.50000E+00
 -1        36 1.00000E+00 0.00000E+00 2.00000E+00
 -1        37 1.00000E+00 0.00000E+00 2.50000E+00
 -1        38 1.00000E+00 0.00000E+00 3.00000E+00
 -1        39 1.00000E+00 0.00000E+00 3.50000E+00
 -1        40 1.00000E+00 0.00000E+00 4.00000E+00
 -1        41 1.00000E+00 0.00000E+00 4.50000E+00
 -1        42 1.00000E+00 0.00000E+00 5.00000E+00
 -1        43 1.00000E+00 0.00000E+00 5.50000E+00
 -1        44 1.00000E+00 0.00000E+00 6.00000E+00
 -1        51 0.00000E+00 0.00000E+00 6.00000E+00
 -1        52 0.00000E+00 0.00000E+00 5.50000E+00
 -1        53 0.00000E+00 0.00000E+00 5.00000E+00
 -1        54 0.00000E+00 0.00000E+00 4.50000E+00
 -1        55 0.00000E+00 0.00000E+00 4.00000E+00
 -1        56 0.00000E+00 0.00000E+00 3.50000E+00
 -1        57 0.00000E+00 0.00000E+00 3.00000E+00
 -1        58 0.00000E+00 0.00000E+00 2.50000E+00
 -1        59 0.00000E+00 0.00000E+00 2.00000E+00
 -1        60 0.00000E+00 0.00000E+00 1.50000E+00
 -1        61 0.00000E+00 0.00000E+00 1.00000E+00
 -1        62 0.00000E+00 0.00000E+00 5.00000E-01
 -1        63 1.00000E+00 1.00000E+00 5.00000E-01
 -1        64 1.00000E+00 1.00000E+00 1.00000E+00
 -1        65 1.00000E+00 1.00000E+00 1.50000E+00
 -1        66 1.00000E+00 1.00000E+00 2.00000E+00
 -1        67 1.00000E+00 1.00000E+00 2.50000E+00
 -1        68 1.00000E+00 1.00000E+00 3.00000E+00
 -1        69 1.00000E+00 1.00000E+00 3.50000E+00
 -1        70 1.00000E+00 1.00000E+00 4.00000E+00
 -1        71 1.00000E+00 1.00000E+00 4.50000E+00
 -1        72 1.00000E+00 1.00000E+00 5.00000E+00
 -1        73 1.00000E+00 1.00000E+00 5.50000E+00
 -1        74 1.00000E+00 1.00000E+00 6.00000E+00
 -1        78 0.00000E+00 1.00000E+00 5.00000E-01
 -1        79 0.00000E+00 1.00000E+00 1.00000E+00
 -1        80 0.00000E+00 1.00000E+00 1.50000E+00
 -1        81 0.00000E+00 1.00000E+00 2.00000E+00
 -1        82 0.00000E+00 1.00000E+00 2.50000E+00
 -1        83 0.00000E+00 1.00000E+00 3.00000E+00
 -1        84 0.00000E+00 1.00000E+00 3.50000E+00
 -1        85 0.00000E+00 1.00000E+00 4.00000E+00
 -1        86 0.00000E+00 1.00000E+00 4.50000E+00
 -1        87 0.00000E+00 1.00000E+00 5.00000E+00
 -1        88 0.00000E+00 1.00000E+00 5.50000E+00
 -1        89 0.00000E+00 1.00000E+00 6.00000E+00
 -1        93 5.00000E-01 2.50000E-01 0.00000E+00
 -1        94 2.50000E-01 5.00000E-01 0.00000E+00
 -1        95 5.00000E-01 5.00000E-01 0.00000E+00
 -1        96 7.50000E-01 5.00000E-01 0.00000E+00
 -1        97 5.00000E-01 7.50000E-01 0.00000E+00
 -1       103 5.00000E-01 0.00000E+00 5.00000E-01
 -1       104 2.50000E-01 0.00000E+00 1.00000E+00
 -1       105 5.00000E-01 0.00000E+00 1.00000E+00
 -1       106 7.50000E-01 0.00000E+00 1.00000E+00
 -1       107 5.00000E-01 0.00000E+00 1.50000E+00
 -1       108 2.50000E-01 0.00000E+00 2.00000E+00
 -1       109 5.00000E-01 0.00000E+00 2.00000E+00
 -1       110 7.50000E-01 0.00000E+00 2.00000E+00
 -1       111 5.00000E-01 0.00000E+00 2.50000E+00
 -1       112 2.50000E-01 0.00000E+00 3.00000E+00
 -1       113 5.00000E-01 0.00000E+00 3.00000E+00
 -1       114 7.50000E-01 0.00000E+00 3.00000E+00
 -1       115 5.00000E-01 0.00000E+00 3.50000E+00
 -1       116 2.50000E-01 0.00000E+00 4.00000E+00
 -1       117 5.00000E-01 0.00000E+00 4.00000E+00
 -1       118 7.50000E-01 0.00000E+00 4.00000E+00
 -1       119 5.00000E-01 0.00000E+00 4.50000E+00
 -1       120 2.50000E-01 0.00000E+00 5.00000E+00
 -1       121 5.00000E-01 0.00000E+00 5.00000E+00
 -1       122 7.50000E-01 0.00000E+00 5.00000E+00
 -1       123 5.00000E-01 0.00000E+00 5.50000E+00
 -1       124 2.50000E-01 0.00000E+00 6.00000E+00
 -1       125 5.00000E-01 0.00000E+00 6.00000E+00
 -1       126 7.50000E-01 0.00000E+00 6.00000E+00
 -1       132 1.00000E+00 5.00000E-01 5.00000E-01
 -1       133 1.00000E+00 2.50000E-01 1.00000E+00
 -1       134 1.00000E+00 5.00000E-01 1.00000E+00
 -1       135 1.00000E+00 7.50000E-01 1.00000E+00
 -1       136 1.00000E+00 5.00000E-01 1.50000E+00
 -1       137 1.00000E+00 2.50000E-01 2.00000E+00
 -1       138 1.00000E+00 5.00000E-01 2.00000E+00
 -1       139 1.00000E+00 7.50000E-01 2.00000E+00
 -1       140 1.00000E+00 5.00000E-01 2.50000E+00
 -1       141 1.00000E+00 2.50000E-01 3.00000E+00
 -1       142 1.00000E+00 5.00000E-01 3.00000E+00
 -1       143 1.00000E+00 7.50000E-01 3.00000E+00
 -1       144 1.00000E+00 5.00000E-01 3.50000E+00
 -1       145 1.00000E+00 2.50000E-01 4.00000E+00
 -1       146 1.00000E+00 5.00000E-01 4.00000E+00
 -1       147 1.00000E+00 7.50000E-01 4.00000E+00
 -1       148 1.00000E+00 5.00000E-01 4.50000E+00
 -1       149 1.00000E+00 2.50000E-01 5.00000E+00
 -1       150 1.00000E+00 5.00000E-01 5.00000E+00
 -1       151 1.00000E+00 7.50000E-01 5.00000E+00
 -1       152 1.00000E+00 5.00000E-01 5.50000E+00
 -1       153 1.00000E+00 2.50000E-01 6.00000E+00
 -1       154 1.00000E+00 5.00000E-01 6.00000E+00
 -1       155 1.00000E+00 7.50000E-01 6.00000E+00
 -1       161 5.00000E-01 1.00000E+00 5.00000E-01
 -1       162 7.50000E-01 1.00000E+00 1.00000E+00
 -1       163 5.00000E-01 1.00000E+00 1.00000E+00
 -1       164 2.50000E-01 1.00000E+00 1.00000E+00
 -1       165 5.00000E-01 1.00000E+00 1.50000E+00
 -1       166 7.50000E-01 1.00000E+00 2.00000E+00
 -1       167 5.00000E-01 1.00000E+00 2.00000E+00
 -1       168 2.50000E-01 1.00000E+00 2.00000E+00
 -1       169 5.00000E-01 1.00000E+00 2.50000E+00
 -1       170 7.50000E-01 1.00000E+00 3.00000E+00
 -1       171 5.00000E-01 1.00000E+00 3.00000E+00
 -1       172 2.50000E-01 1.00000E+00 3.00000E+00
 -1       173 5.00000E-01 1.00000E+00 3.50000E+00
 -1       174 7.50000E-01 1.00000E+00 4.00000E+00
 -1       175 5.00000E-01 1.00000E+00 4.00000E+00
 -1       176 2.50000E-01 1.00000E+00 4.00000E+00
 -1       177 5.00000E-01 1.00000E+00 4.50000E+00
 -1       178 7.50000E-01 1.00000E+00 5.00000E+00
 -1       179 5.00000E-01 1.00000E+00 5.00000E+00
 -1       180 2.50000E-01 1.00000E+00 5.00000E+00
 -1       181 5.00000E-01 1.00000E+00 5.50000E+00
 -1       182 7.50000E-01 1.00000E+00 6.00000E+00
 -1       183 5.00000E-01 1.00000E+00 6.00000E+00
 -1       184 2.50000E-01 1.00000E+00 6.00000E+00
 -1       190 0.00000E+00 5.00000E-01 5.00000E-01
 -1       191 0.00000E+00 7.50000E-01 1.00000E+00
 -1       192 0.00000E+00 5.00000E-01 1.00000E+00
 -1       193 0.00000E+00 2.50000E-01 1.00000E+00
 -1       194 0.00000E+00 5.00000E-01 1.50000E+00
 -1       195 0.00000E+00 7.50000E-01 2.00000E+00
 -1       196 0.00000E+00 5.00000E-01 2.00000E+00
 -1       197 0.00000E+00 2.50000E-01 2.00000E+00
 -1       198 0.00000E+00 5.00000E-01 2.50000E+00
 -1       199 0.00000E+00 7.50000E-01 3.00000E+00
 -1       200 0.00000E+00 5.00000E-01 3.00000E+00
 -1       201 0.00000E+00 2.50000E-01 3.00000E+00
 -1       202 0.00000E+00 5.00000E-01 3.50000E+00
 -1       203 0.00000E+00 7.50000E-01 4.00000E+00
 -1       204 0.00000E+00 5.00000E-01 4.00000E+00
 -1       205 0.00000E+00 2.50000E-01 4.00000E+00
 -1       206 0.00000E+00 5.00000E-01 4.50000E+00
 -1       207 0.00000E+00 7.50000E-01 5.00000E+00
 -1       208 0.00000E+00 5.00000E-01 5.00000E+00
 -1       209 0.00000E+00 2.50000E-01 5.00000E+00
 -1       210 0.00000E+00 5.00000E-01 5.50000E+00
 -1       211 0.00000E+00 7.50000E-01 6.00000E+00
 -1       212 0.00000E+00 5.00000E-01 6.00000E+00
 -1       213 0.00000E+00 2.50000E-01 6.00000E+00
 -1       219 5.00000E-01 5.00000E-01 5.00000E-01
 -1       220 5.00000E-01 2.50000E-01 1.00000E+00
 -1       221 2.50000E-01 5.00000E-01 1.00000E+00
 -1       222 5.00000E-01 5.00000E-01 1.00000E+00
 -1       223 7.50000E-01 5.00000E-01 1.00000E+00
 -1       224 5.00000E-01 7.50000E-01 1.00000E+00
 -1       225 5.00000E-01 5.00000E-01 1.50000E+00
 -1       226 5.00000E-01 2.50000E-01 2.00000E+00
 -1       227 2.50000E-01 5.00000E-01 2.00000E+00
 -1       228 5.00000E-01 5.00000E-01 2.00000E+00
 -1       229 7.50000E-01 5.00000E-01 2.00000E+00
 -1       230 5.00000E-01 7.50000E-01 2.00000E+00
 -1       231 5.00000E-01 5.00000E-01 2.50000E+00
 -1       232 5.00000E-01 2.50000E-01 3.00000E+00
 -1       233 2.50000E-01 5.00000E-01 3.00000E+00
 -1       234 5.00000E-01 5.00000E-01 3.00000E+00
 -1       235 7.50000E-01 5.00000E-01 3.00000E+00
 -1       236 5.00000E-01 7.50000E-01 3.00000E+00
 -1       237 5.00000E-01 5.00000E-01 3.50000E+00
 -1       238 5.00000E-01 2.50000E-01 4.00000E+00
 -1       239 2.50000E-01 5.00000E-01 4.00000E+00
 -1       240 5.00000E-01 5.00000E-01 4.00000E+00
 -1       241 7.50000E-01 5.00000E-01 4.00000E+00
 -1       242 5.00000E-01 7.50000E-01 4.00000E+00
 -1       243 5.00000E-01 5.00000E-01 4.50000E+00
 -1       244 5.00000E-01 2.50000E-01 5.00000E+00
 -1       245 2.50000E-01 5.00000E-01 5.00000E+00
 -1       246 5.00000E-01 5.00000E-01 5.00000E+00
 -1       247 7.50000E-01 5.00000E-01 5.00000E+00
 -1       248 5.00000E-01 7.50000E-01 5.00000E+00
 -1       249 5.00000E-01 5.00000E-01 5.50000E+00
 -1       250 5.00000E-01 2.50000E-01 6.00000E+00
 -1       251 2.50000E-01 5.00000E-01 6.00000E+00
 -1       252 5.00000E-01 5.00000E-01 6.00000E+00
 -1       253 7.50000E-01 5.00000E-01 6.00000E+00
 -1       254 5.00000E-01 7.50000E-01 6.00000E+00
 -3
    3C                            24                                     1
 -1         1    4    0    1
 -2         1        10        95        19        61       105       222       192         9        93
 -2        94        20        62       103       219       190       104       220       221       193
 -1         2    4    0    1
 -2        10         2        13        95       105        34       134       222        11        12
 -2        96        93       103        33       132       219       106       133       223       220
 -1         3    4    0    1
 -2        19        95        16         4       192       222       163        79        94        97
 -2        17        18       190       219       161        78       221       224       164       191
 -1         4    4    0    1
 -2        95        13         3        16       222       134        64       163        96        14
 -2        15        97       219       132        63       161       223       135       162       224
 -1         5    4    0    1
 -2        61       105       222       192        59       109       228       196       104       220
 -2       221       193        60       107       225       194       108       226       227       197
 -1         6    4    0    1
 -2       105        34       134       222       109        36       138       228       106       133
 -2       223       220       107        35       136       225       110       137       229       226
 -1         7    4    0    1
 -2       192       222       163        79       196       228       167        81       221       224
 -2       164       191       194       225       165        80       227       230       168       195
 -1         8    4    0    1
 -2       222       134        64       163       228       138        66       167       223       135
 -2       162       224       225       136        65       165       229       139       166       230
 -1         9    4    0    1
 -2        59       109       228       196        57       113       234       200       108       226
 -2       227       197        58       111       231       198       112       232       233       201
 -1        10    4    0    1
 -2       109        36       138       228       113        38       142       234       110       137
 -2       229       226       111        37       140       231       114       141       235       232
 -1        11    4    0    1
 -2       196       228       167        81       200       234       171        83       227       230
 -2       168       195       198       231       169        82       233       236       172       199
 -1        12    4    0    1
 -2       228       138        66       167       234       142        68       171       229       139
 -2       166       230       231       140        67       169       235       143       170       236
 -1        13    4    0    1
 -2        57       113       234       200        55       117       240       204       112       232
 -2       233       201        56       115       237       202       116       238       239       205
 -1        14    4    0    1
 -2       113        38       142       234       117        40       146       240       114       141
 -2       235       232       115        39       144       237       118       145       241       238
 -1        15    4    0    1
 -2       200       234       171        83       204       240       175        85       233       236
 -2       172       199       202       237       173        84       239       242       176       203
 -1        16    4    0    1
 -2       234       142        68       171       240       146        70       175       235       143
 -2       170       236       237       144        69       173       241       147       174       242
 -1        17    4    0    1
 -2        55       117       240       204        53       121       246       208       116       238
 -2       239       205        54       119       243       206       120       244       245       209
 -1        18    4    0    1
 -2       117        40       146       240       121        42       150       246       118       145
 -2       241       238       119        41       148       243       122       149       247       244
 -1        19    4    0    1
 -2       204       240       175        85       208       246       179        87       239       242
 -2       176       203       206       243       177        86       245       248       180       207
 -1        20    4    0    1
 -2       240       146        70       175       246       150        72       179       241       147
 -2       174       242       243       148        71       177       247       151       178       248
 -1        21    4    0    1
 -2        53       121       246       208        51       125       252       212       120       244
 -2       245       209        52       123       249       210       124       250       251       213
 -1        22    4    0    1
 -2       121        42       150       246       125        44       154       252       122       149
 -2       247       244       123        43       152       249       126       153       253       250
 -1        23    4    0    1
 -2       208       246       179        87       212       252       183        89       245       248
 -2       180       207       210       249       181        88       251       254       184       211
 -1        24    4    0    1
 -2       246       150        72       179       252       154        74       183       247       151
 -2       178       248       249       152        73       181       253       155       182       254
 -3
    1PSTEP                         1           1           1          
  100CL  101 5.00000E-03         201                     1    1           1
 -4  DISP        4    1
 -5  D1          1    2    1    0
 -5  D2          1    2    2    0
 -5  D3          1    2    3    0
 -5  ALL         1    2    0    0    1ALL
 -1         1 0.00000E+00 0.00000E+00 0.00000E+00
 -1         2 0.00000E+00 0.00000E+00 0.00000E+00
 -1         3 0.00000E+00 0.00000E+00 0.00000E+00
 -1         4 0.00000E+00 0.00000E+00 0.00000E+00
 -1         9 0.00000E+00 0.00000E+00 0.00000E+00
 -1        10 0.00000E+00 0.00000E+00 0.00000E+00
 -1        11 0.00000E+00 0.00000E+00 0.00000E+00
 -1        12 0.00000E+00 0.00000E+00 0.00000E+00
 -1        13 0.00000E+00 0.00000E+00 0.00000E+00
 -1        14 0.00000E+00 0.00000E+00 0.00000E+00
 -1        15 0.00000E+00 0.00000E+00 0.00000E+00
 -1        16 0.00000E+00 0.00000E+00 0.00000E+00
 -1        17 0.00000E+00 0.00000E+00 0.00000E+00
 -1        18 0.00000E+00 0.00000E+00 0.00000E+00
 -1        19 0.00000E+00 0.00000E+00 0.00000E+00
 -1        20 0.00000E+00 0.00000E+00 0.00000E+00
 -1        33 9.21737E-05-1.48559E-04-1.84671E-04
 -1        34 3.87249E-05-4.59605E-04-3.62479E-04
 -1        35 3.58344E-05-9.46075E-04-4.74342E-04
 -1        36 1.30654E-05-1.49742E-03-5.40136E-04
 -1        37-9.29108E-06-2.08320E-03-5.42438E-04
 -1        38-3.69586E-05-2.66387E-03-5.08398E-04
 -1        39-4.58977E-05-3.15194E-03-3.73719E-04
 -1        40-2.73449E-05-3.48702E-03-2.26103E-04
 -1        41-1.15465E-04-3.57220E-03-7.57049E-05
 -1        42-2.38776E-04-3.72809E-03-1.03715E-04
 -1        43 3.22828E-04-3.23169E-03 2.01510E-04
 -1        44 6.78928E-04-2.79664E-03 4.78365E-04
 -1        51-6.78828E-04-2.79661E-03 4.78287E-04
 -1        52-3.22676E-04-3.23170E-03 2.01448E-04
 -1        53 2.38982E-04-3.72809E-03-1.03738E-04
 -1        54 1.15669E-04-3.57221E-03-7.57115E-05
 -1        55 2.75534E-05-3.48702E-03-2.26094E-04
 -1        56 4.60833E-05-3.15194E-03-3.73702E-04
 -1        57 3.71210E-05-2.66388E-03-5.08371E-04
 -1        58 9.41849E-06-2.08320E-03-5.42408E-04
 -1        59-1.29723E-05-1.49742E-03-5.40104E-04
 -1        60-3.57757E-05-9.46073E-04-4.74313E-04
 -1        61-3.86959E-05-4.59603E-04-3.62457E-04
 -1        62-9.21643E-05-1.48554E-04-1.84660E-04
 -1        63-9.01078E-05-1.45767E-04 1.80508E-04
 -1        64-3.83153E-05-4.58551E-04 3.53634E-04
 -1        65-3.21637E-05-9.45011E-04 4.61098E-04
 -1        66-1.16241E-05-1.50458E-03 5.23551E-04
 -1        67 8.81002E-06-2.07079E-03 5.20238E-04
 -1        68 2.82376E-05-2.66156E-03 4.79145E-04
 -1        69 6.72648E-05-3.16618E-03 3.39428E-04
 -1        70 5.79397E-05-3.59061E-03 1.93610E-04
 -1        71 4.57522E-05-3.42094E-03 3.24311E-05
 -1        72 1.97695E-05-3.39861E-03 2.68930E-05
 -1        73 3.79531E-05-3.76020E-03-2.99301E-04
 -1        74-2.45589E-04-3.96120E-03-5.36124E-04
 -1        78 9.01171E-05-1.45773E-04 1.80519E-04
 -1        79 3.83442E-05-4.58553E-04 3.53656E-04
 -1        80 3.22223E-05-9.45013E-04 4.61126E-04
 -1        81 1.17171E-05-1.50458E-03 5.23583E-04
 -1        82-8.68272E-06-2.07079E-03 5.20269E-04
 -1        83-2.80753E-05-2.66155E-03 4.79172E-04
 -1        84-6.70793E-05-3.16618E-03 3.39445E-04
 -1        85-5.77315E-05-3.59061E-03 1.93619E-04
 -1        86-4.55489E-05-3.42093E-03 3.24245E-05
 -1        87-1.95632E-05-3.39861E-03 2.68701E-05
 -1        88-3.78007E-05-3.76019E-03-2.99363E-04
 -1        89 2.45689E-04-3.96123E-03-5.36202E-04
 -1        93 0.00000E+00 0.00000E+00 0.00000E+00
 -1        94 0.00000E+00 0.00000E+00 0.00000E+00
 -1        95 0.00000E+00 0.00000E+00 0.00000E+00
 -1        96 0.00000E+00 0.00000E+00 0.00000E+00
 -1        97 0.00000E+00 0.00000E+00 0.00000E+00
 -1       103 3.21403E-09-1.85993E-04-1.81283E-04
 -1       104-1.96972E-05-4.86144E-04-3.71056E-04
 -1       105 1.40716E-08-4.90534E-04-3.73967E-04
 -1       106 1.97251E-05-4.86145E-04-3.71066E-04
 -1       107 2.87787E-08-9.59244E-04-4.78246E-04
 -1       108-4.44706E-06-1.50548E-03-5.43753E-04
 -1       109 4.60277E-08-1.51994E-03-5.42807E-04
 -1       110 4.53960E-06-1.50548E-03-5.43769E-04
 -1       111 6.44540E-08-2.06491E-03-5.44169E-04
 -1       112 1.14066E-05-2.68268E-03-5.20742E-04
 -1       113 8.00752E-08-2.68029E-03-5.27971E-04
 -1       114-1.12448E-05-2.68268E-03-5.20755E-04
 -1       115 9.50041E-08-3.11693E-03-3.87241E-04
 -1       116 4.07035E-05-3.49991E-03-2.05051E-04
 -1       117 1.00874E-07-3.62986E-03-1.73033E-04
 -1       118-4.04983E-05-3.49991E-03-2.05055E-04
 -1       119 1.07322E-07-3.44476E-03-4.32071E-05
 -1       120 3.57112E-05-3.76597E-03-1.12469E-04
 -1       121 9.48315E-08-3.65907E-03-1.61254E-04
 -1       122-3.55101E-05-3.76597E-03-1.12453E-04
 -1       123 8.32641E-08-3.51188E-03-8.26058E-05
 -1       124-6.76707E-05-3.14476E-03 4.45155E-04
 -1       125 3.22002E-08-3.87087E-03 4.73169E-04
 -1       126 6.77495E-05-3.14477E-03 4.45177E-04
 -1       132 1.14685E-06-9.94009E-05-1.86125E-06
 -1       133 2.04788E-05-4.43246E-04-1.73130E-04
 -1       134 1.25289E-06-4.48522E-04-3.76572E-06
 -1       135-1.91250E-05-4.43051E-04 1.64582E-04
 -1       136 2.28602E-07-9.22183E-04-6.91142E-06
 -1       137 4.95336E-06-1.49527E-03-2.66590E-04
 -1       138 1.07206E-06-1.49119E-03-9.52532E-06
 -1       139-3.23011E-06-1.49750E-03 2.49921E-04
 -1       140 2.08095E-06-2.09263E-03-1.12535E-05
 -1       141-7.28521E-06-2.65164E-03-2.43327E-04
 -1       142 5.89531E-06-2.64568E-03-7.54414E-06
 -1       143 9.84297E-06-2.65569E-03 2.17633E-04
 -1       144-8.60025E-06-3.20688E-03-1.67336E-05
 -1       145-5.62285E-05-3.51392E-03-1.32887E-04
 -1       146-9.46883E-06-3.46558E-03-3.10465E-05
 -1       147 5.19371E-05-3.54689E-03 9.48353E-05
 -1       148 2.38158E-05-3.58309E-03-2.71034E-05
 -1       149 7.29603E-05-3.39409E-03-4.87900E-05
 -1       150 8.39711E-05-3.24758E-03-1.39941E-05
 -1       151-6.13515E-05-3.28608E-03-2.05284E-05
 -1       152-1.26694E-04-3.83852E-03 1.44821E-05
 -1       153-3.53744E-04-3.23636E-03 1.79480E-04
 -1       154-8.26399E-05-2.90965E-03-3.12649E-05
 -1       155 3.02920E-04-3.63083E-03-2.39503E-04
 -1       161 3.20075E-09-1.83888E-04 1.76941E-04
 -1       162-1.93487E-05-4.84933E-04 3.62701E-04
 -1       163 1.40489E-08-4.87043E-04 3.64759E-04
 -1       164 1.93766E-05-4.84934E-04 3.62711E-04
 -1       165 2.87420E-08-9.58945E-04 4.65983E-04
 -1       166-4.46282E-06-1.50158E-03 5.25623E-04
 -1       167 4.59855E-08-1.51438E-03 5.27455E-04
 -1       168 4.55526E-06-1.50158E-03 5.25639E-04
 -1       169 6.43923E-08-2.06552E-03 5.19043E-04
 -1       170 9.99370E-06-2.68214E-03 4.94875E-04
 -1       171 8.00167E-08-2.64415E-03 4.92348E-04
 -1       172-9.83205E-06-2.68214E-03 4.94888E-04
 -1       173 9.49141E-08-3.14008E-03 3.61303E-04
 -1       174 4.31039E-05-3.43838E-03 1.61356E-04
 -1       175 1.00805E-07-3.55642E-03 1.54215E-04
 -1       176-4.28989E-05-3.43838E-03 1.61361E-04
 -1       177 1.07203E-07-3.39326E-03-1.94519E-05
 -1       178-3.90368E-05-3.88291E-03 7.21803E-05
 -1       179 9.47852E-08-3.46035E-03 8.90962E-05
 -1       180 3.92376E-05-3.88291E-03 7.21648E-05
 -1       181 8.30680E-08-3.72131E-03-2.88388E-05
 -1       182 3.05058E-05-2.66364E-03-4.96595E-04
 -1       183 3.22522E-08-4.74470E-03-5.02540E-04
 -1       184-3.04271E-05-2.66365E-03-4.96616E-04
 -1       190-1.13520E-06-9.94009E-05-1.85020E-06
 -1       191 1.91555E-05-4.43052E-04 1.64604E-04
 -1       192-1.22207E-06-4.48522E-04-3.74294E-06
 -1       193-2.04483E-05-4.43245E-04-1.73107E-04
 -1       194-1.69304E-07-9.22183E-04-6.88278E-06
 -1       195 3.32369E-06-1.49750E-03 2.49954E-04
 -1       196-9.77986E-07-1.49119E-03-9.49272E-06
 -1       197-4.85973E-06-1.49527E-03-2.66557E-04
 -1       198-1.95460E-06-2.09263E-03-1.12226E-05
 -1       199-9.68095E-06-2.65569E-03 2.17661E-04
 -1       200-5.73282E-06-2.64568E-03-7.51607E-06
 -1       201 7.44731E-06-2.65164E-03-2.43299E-04
 -1       202 8.78320E-06-3.20688E-03-1.67163E-05
 -1       203-5.17285E-05-3.54689E-03 9.48448E-05
 -1       204 9.67840E-06-3.46558E-03-3.10374E-05
 -1       205 5.64372E-05-3.51392E-03-1.32877E-04
 -1       206-2.36194E-05-3.58309E-03-2.71093E-05
 -1       207 6.15574E-05-3.28608E-03-2.05485E-05
 -1       208-8.37610E-05-3.24758E-03-1.40067E-05
 -1       209-7.27542E-05-3.39409E-03-4.88101E-05
 -1       210 1.26842E-04-3.83852E-03 1.44112E-05
 -1       211-3.02795E-04-3.63084E-03-2.39576E-04
 -1       212 8.27811E-05-2.90965E-03-3.13530E-05
 -1       213 3.53868E-04-3.23635E-03 1.79407E-04
 -1       219 4.34708E-09-1.36555E-04-1.65269E-06
 -1       220 1.46782E-08-4.69760E-04-1.80396E-04
 -1       221-5.87579E-07-4.70581E-04-4.54890E-06
 -1       222 1.46709E-08-4.71311E-04-4.69013E-06
 -1       223 6.17018E-07-4.70581E-04-4.55978E-06
 -1       224 1.46666E-08-4.67852E-04 1.71625E-04
 -1       225 2.93127E-08-9.38852E-04-6.52350E-06
 -1       226 4.59115E-08-1.50629E-03-2.73250E-04
 -1       227-5.01627E-07-1.48955E-03-8.64757E-06
 -1       228 4.57846E-08-1.49131E-03-1.01072E-05
 -1       229 5.94352E-07-1.48955E-03-8.66338E-06
 -1       230 4.58906E-08-1.50385E-03 2.53857E-04
 -1       231 6.44266E-08-2.09542E-03-9.74495E-06
 -1       232 7.92260E-08-2.65559E-03-2.50405E-04
 -1       233-2.63158E-06-2.64536E-03-1.57075E-05
 -1       234 7.86997E-08-2.63418E-03-1.69636E-05
 -1       235 2.79217E-06-2.64536E-03-1.57207E-05
 -1       236 7.91952E-08-2.63657E-03 2.21156E-04
 -1       237 9.43757E-08-3.16578E-03-1.29848E-05
 -1       238 9.90593E-08-3.57395E-03-1.29838E-04
 -1       239 6.09682E-06-3.41169E-03-1.84618E-05
 -1       240 9.78548E-08-3.45083E-03-2.33842E-05
 -1       241-5.89469E-06-3.41169E-03-1.84675E-05
 -1       242 9.90308E-08-3.53713E-03 8.41502E-05
 -1       243 1.07309E-07-3.58266E-03-2.67327E-05
 -1       244 9.16596E-08-3.46102E-03-2.25563E-05
 -1       245-4.25161E-05-3.53006E-03-3.72253E-05
 -1       246 8.96234E-08-3.47740E-03-2.78572E-05
 -1       247 4.27155E-05-3.53006E-03-3.72093E-05
 -1       248 9.16127E-08-3.38131E-03-1.17984E-05
 -1       249 8.20443E-08-3.57034E-03-2.14690E-05
 -1       250 2.93685E-08-4.09401E-03 1.60343E-04
 -1       251 5.44996E-05-2.50941E-03-2.25919E-05
 -1       252 2.74476E-08-3.45546E-03-2.04560E-05
 -1       253-5.44092E-05-2.50941E-03-2.25891E-05
 -1       254 2.94927E-08-4.42476E-03-2.47388E-04
 -3
    1PSTEP                         2           2           1          
  100CL  102 1.00000E-02         201                     1    2           1
 -4  DISP        4    1
 -5  D1          1    2    1    0
 -5  D2          1    2    2    0
 -5  D3          1    2    3    0
 -5  ALL         1    2    0    0    1ALL
 -1         1 0.00000E+00 0.00000E+00 0.00000E+00
 -1         2 0.00000E+00 0.00000E+00 0.00000E+00
 -1         3 0.00000E+00 0.00000E+00 0.00000E+00
 -1         4 0.00000E+00 0.00000E+00 0.00000E+00
 -1         9 0.00000E+00 0.00000E+00 0.00000E+00
 -1        10 0.00000E+00 0.00000E+00 0.00000E+00
 -1        11 0.00000E+00 0.00000E+00 0.00000E+00
 -1        12 0.00000E+00 0.00000E+00 0.00000E+00
 -1        13 0.00000E+00 0.00000E+00 0.00000E+00
 -1        14 0.00000E+00 0.00000E+00 0.00000E+00
 -1        15 0.00000E+00 0.00000E+00 0.00000E+00
 -1        16 0.00000E+00 0.00000E+00 0.00000E+00
 -1        17 0.00000E+00 0.00000E+00 0.00000E+00
 -1        18 0.00000E+00 0.00000E+00 0.00000E+00
 -1        19 0.00000E+00 0.00000E+00 0.00000E+00
 -1        20 0.00000E+00 0.00000E+00 0.00000E+00
 -1        33-4.66376E-05 7.63846E-05 9.39959E-05
 -1        34-1.91786E-05 2.35442E-04 1.83023E-04
 -1        35-1.77412E-05 4.85643E-04 2.39886E-04
 -1        36-6.13456E-06 7.65565E-04 2.71346E-04
 -1        37 5.90703E-06 1.06918E-03 2.71296E-04
 -1        38 2.15812E-05 1.36273E-03 2.45809E-04
 -1        39 2.47126E-05 1.60827E-03 1.80719E-04
 -1        40 1.27531E-05 1.77352E-03 9.91701E-05
 -1        41 5.83995E-05 1.82821E-03 2.64338E-05
 -1        42 1.12064E-04 1.85135E-03-2.30578E-05
 -1        43-1.22974E-04 1.64429E-03-1.44007E-04
 -1        44-4.25713E-04 1.35812E-03-2.52871E-04
 -1        51 4.25938E-04 1.35800E-03-2.52947E-04
 -1        52 1.23163E-04 1.64414E-03-1.44049E-04
 -1        53-1.11824E-04 1.85119E-03-2.30294E-05
 -1        54-5.82129E-05 1.82807E-03 2.64357E-05
 -1        55-1.25614E-05 1.77341E-03 9.91663E-05
 -1        56-2.45545E-05 1.60817E-03 1.80722E-04
 -1        57-2.14370E-05 1.36264E-03 2.45820E-04
 -1        58-5.79464E-06 1.06910E-03 2.71306E-04
 -1        59 6.22454E-06 7.65508E-04 2.71356E-04
 -1        60 1.78029E-05 4.85601E-04 2.39895E-04
 -1        61 1.92165E-05 2.35415E-04 1.83031E-04
 -1        62 4.66534E-05 7.63737E-05 9.39995E-05
 -1        63 4.66349E-05 7.63657E-05-9.39754E-05
 -1        64 1.91972E-05 2.35428E-04-1.82981E-04
 -1        65 1.77164E-05 4.85657E-04-2.39818E-04
 -1        66 6.10848E-06 7.65636E-04-2.71252E-04
 -1        67-5.76936E-06 1.06903E-03-2.71173E-04
 -1        68-2.12547E-05 1.36253E-03-2.45668E-04
 -1        69-2.51486E-05 1.60867E-03-1.80536E-04
 -1        70-1.36475E-05 1.77467E-03-9.89214E-05
 -1        71-5.65170E-05 1.82618E-03-2.61332E-05
 -1        72-1.06835E-04 1.84628E-03 2.33061E-05
 -1        73 1.14834E-04 1.65251E-03 1.44336E-04
 -1        74 4.11727E-04 1.37339E-03 2.53281E-04
 -1        78-4.66446E-05 7.63511E-05-9.39718E-05